 vasp.5.4.4.18Apr17-6-g9f103f2a35 (build Nov 06 2019 09:29:44) complex          
  
 executed on             LinuxIFC date 2022.11.09  08:22:38
 running on    4 total cores
 distrk:  each k-point on    4 cores,    1 groups
 distr:  one band on NCORES_PER_BAND=   1 cores,    4 groups


--------------------------------------------------------------------------------------------------------


 INCAR:
 POTCAR:    PAW_PBE Cu_pv 06Sep2000               
 POTCAR:    PAW_PBE Pt_pv 12Dec2005               
 POTCAR:    PAW_PBE Cu_pv 06Sep2000               
   VRHFIN =Cu: d10 p1                                                           
   LEXCH  = PE                                                                  
   EATOM  =  4120.1201 eV,  302.8203 Ry                                         
                                                                                
   TITEL  = PAW_PBE Cu_pv 06Sep2000                                             
   LULTRA =        F    use ultrasoft PP ?                                      
   IUNSCR =        1    unscreen: 0-lin 1-nonlin 2-no                           
   RPACOR =    1.500    partial core radius                                     
   POMASS =   63.546; ZVAL   =   17.000    mass and valenz                      
   RCORE  =    2.000    outmost cutoff radius                                   
   RWIGS  =    2.000; RWIGS  =    1.058    wigner-seitz radius (au A)           
   ENMAX  =  368.648; ENMIN  =  276.486 eV                                      
   RCLOC  =    1.304    cutoff for local pot                                    
   LCOR   =        T    correct aug charges                                     
   LPAW   =        T    paw PP                                                  
   EAUG   =  758.233                                                            
   DEXC   =    0.000                                                            
   RMAX   =    2.046    core radius for proj-oper                               
   RAUG   =    1.300    factor for augmentation sphere                          
   RDEP   =    2.025    radius for radial grids                                 
   RDEPT  =    1.558    core radius for aug-charge                              
                                                                                
   Atomic configuration                                                         
    8 entries                                                                   
     n  l   j            E        occ.                                          
     1  0  0.50     -8850.2467   2.0000                                         
     2  0  0.50     -1062.3498   2.0000                                         
     2  1  1.50      -916.8226   6.0000                                         
     3  0  0.50      -114.6929   2.0000                                         
     3  1  1.50       -72.1325   6.0000                                         
     3  2  2.50        -5.0394  10.0000                                         
     4  0  0.50        -4.6097   1.0000                                         
     4  3  2.50        -1.3606   0.0000                                         
   Description                                                                  
     l       E           TYP  RCUT    TYP  RCUT                                 
     1    -72.1324777     23  1.700                                             
     1     -1.3605826     23  1.700                                             
     2     -5.0393776     23  2.000                                             
     2     -6.3999602     23  2.000                                             
     0     -4.6097062     23  1.800                                             
     0     14.1620818     23  1.800                                             
  local pseudopotential read in
  partial core-charges read in
  partial kinetic energy density read in
  atomic valenz-charges read in
  non local Contribution for L=           1  read in
    real space projection operators read in
  non local Contribution for L=           1  read in
    real space projection operators read in
  non local Contribution for L=           2  read in
    real space projection operators read in
  non local Contribution for L=           2  read in
    real space projection operators read in
  non local Contribution for L=           0  read in
    real space projection operators read in
  non local Contribution for L=           0  read in
    real space projection operators read in
    PAW grid and wavefunctions read in
 
   number of l-projection  operators is LMAX  =           6
   number of lm-projection operators is LMMAX =          18
 
 POTCAR:    PAW_PBE Pt_pv 12Dec2005               
   VRHFIN =Pt: 5ps1d9                                                           
   LEXCH  = PE                                                                  
   EATOM  =  2428.2504 eV,  178.4714 Ry                                         
                                                                                
   TITEL  = PAW_PBE Pt_pv 12Dec2005                                             
   LULTRA =        F    use ultrasoft PP ?                                      
   IUNSCR =        1    unscreen: 0-lin 1-nonlin 2-no                           
   RPACOR =    2.000    partial core radius                                     
   POMASS =  195.080; ZVAL   =   16.000    mass and valenz                      
   RCORE  =    2.200    outmost cutoff radius                                   
   RWIGS  =    2.200; RWIGS  =    1.164    wigner-seitz radius (au A)           
   ENMAX  =  294.607; ENMIN  =  220.955 eV                                      
   ICORE  =        3    local potential                                         
   LCOR   =        T    correct aug charges                                     
   LPAW   =        T    paw PP                                                  
   EAUG   =  527.014                                                            
   DEXC   =    0.000                                                            
   RMAX   =    2.247    core radius for proj-oper                               
   RAUG   =    1.300    factor for augmentation sphere                          
   RDEP   =    2.279    radius for radial grids                                 
   RDEPT  =    1.878    core radius for aug-charge                              
                                                                                
   Atomic configuration                                                         
   16 entries                                                                   
     n  l   j            E        occ.                                          
     1  0  0.50    -78401.1885   2.0000                                         
     2  0  0.50    -13770.7750   2.0000                                         
     2  1  1.50    -11931.0468   6.0000                                         
     3  0  0.50     -3234.7234   2.0000                                         
     3  1  1.50     -2699.2216   6.0000                                         
     3  2  2.50     -2119.5714  10.0000                                         
     4  0  0.50      -695.1528   2.0000                                         
     4  1  1.50      -519.6034   6.0000                                         
     4  2  2.50      -306.6786  10.0000                                         
     4  3  3.50       -70.1041  14.0000                                         
     5  0  0.50      -101.7747   2.0000                                         
     5  1  1.50       -55.9873   6.0000                                         
     6  1  1.50        -6.8029   0.0000                                         
     5  2  2.50        -6.1423   9.0000                                         
     6  0  0.50        -5.6573   1.0000                                         
     5  3  2.50        -1.3606   0.0000                                         
   Description                                                                  
     l       E           TYP  RCUT    TYP  RCUT                                 
     1    -55.9873477     23  2.000                                             
     1     27.2116520     23  2.000                                             
     2     -6.1423404     23  2.200                                             
     2     -4.6754623     23  2.200                                             
     0     -5.6573207     23  2.200                                             
     0     47.6203910     23  2.200                                             
     3      6.8029130     23  2.200                                             
  local pseudopotential read in
  partial core-charges read in
  partial kinetic energy density read in
  atomic valenz-charges read in
  non local Contribution for L=           1  read in
    real space projection operators read in
  non local Contribution for L=           1  read in
    real space projection operators read in
  non local Contribution for L=           2  read in
    real space projection operators read in
  non local Contribution for L=           2  read in
    real space projection operators read in
  non local Contribution for L=           0  read in
    real space projection operators read in
  non local Contribution for L=           0  read in
    real space projection operators read in
    PAW grid and wavefunctions read in
 
   number of l-projection  operators is LMAX  =           6
   number of lm-projection operators is LMMAX =          18
 
  PAW_PBE Cu_pv 06Sep2000               :
 energy of atom  1       EATOM=-4120.1201
 kinetic energy error for atom=    0.1300 (will be added to EATOM!!)
  PAW_PBE Pt_pv 12Dec2005               :
 energy of atom  2       EATOM=-2428.2504
 kinetic energy error for atom=    0.1135 (will be added to EATOM!!)
 
 
 POSCAR: MLIP output to VASP                     
  positions in cartesian coordinates
  No initial velocities read in
 exchange correlation table for  LEXCH =        8
   RHO(1)=    0.500       N(1)  =     2000
   RHO(2)=  100.500       N(2)  =     4000
 


--------------------------------------------------------------------------------------------------------


 ion  position               nearest neighbor table
   1  0.000  0.000  0.000-
   2  0.667  0.333  0.111-   3 2.77   3 2.77   3 2.77
   3  0.333  0.667  0.222-   2 2.77   2 2.77   2 2.77   4 2.77   4 2.77   4 2.77
   4  0.000  0.000  0.333-   5 2.77   5 2.77   5 2.77   3 2.77   3 2.77   3 2.77
   5  0.667  0.333  0.444-   4 2.77   4 2.77   4 2.77   6 2.77   6 2.77   6 2.77
   6  0.333  0.667  0.556-   7 2.77   7 2.77   7 2.77   5 2.77   5 2.77   5 2.77
   7  0.000  0.000  0.667-   6 2.77   6 2.77   6 2.77   8 2.77   8 2.77   8 2.77
   8  0.667  0.333  0.778-   9 2.77   9 2.77   9 2.77   7 2.77   7 2.77   7 2.77
   9  0.333  0.667  0.889-   8 2.77   8 2.77   8 2.77
 
  LATTYP: Found a hexagonal cell.
 ALAT       =     2.7689594444
 C/A-ratio  =     7.3484692283
  
  Lattice vectors:
  
 A1 = (   0.0000000000,   1.9579500000,   1.9579500000)
 A2 = (   1.9579500000,  -1.9579500000,   0.0000000000)
 A3 = (  11.7477000000,  11.7477000000, -11.7477000000)


Analysis of symmetry for initial positions (statically):
=====================================================================
 Subroutine PRICEL returns:
 Original cell was already a primitive cell.
 

 Routine SETGRP: Setting up the symmetry group for a 
 hexagonal supercell.


 Subroutine GETGRP returns: Found 12 space group operations
 (whereof 12 operations were pure point group operations)
 out of a pool of 24 trial point group operations.


The static configuration has the point symmetry D_3d.


Analysis of symmetry for dynamics (positions and initial velocities):
=====================================================================
 Subroutine PRICEL returns:
 Original cell was already a primitive cell.
 

 Routine SETGRP: Setting up the symmetry group for a 
 hexagonal supercell.


 Subroutine GETGRP returns: Found 12 space group operations
 (whereof 12 operations were pure point group operations)
 out of a pool of 24 trial point group operations.


The dynamic configuration has the point symmetry D_3d.


 Subroutine INISYM returns: Found 12 space group operations
 (whereof 12 operations are pure point group operations),
 and found     1 'primitive' translations

 
 
 KPOINTS: autoGR kpoint generation:   332 (irred),
  k-points in reciprocal lattice
Space group operators:
 irot       det(A)        alpha          n_x          n_y          n_z        tau_x        tau_y        tau_z
    1     1.000000     0.000001     1.000000     0.000000     0.000000     0.000000     0.000000     0.000000
    2    -1.000000     0.000001     1.000000     0.000000     0.000000     0.000000     0.000000     0.000000
    3     1.000000   120.000000    -0.577350    -0.577350     0.577350     0.000000     0.000000     0.000000
    4    -1.000000   120.000000    -0.577350    -0.577350     0.577350     0.000000     0.000000     0.000000
    5     1.000000   120.000000     0.577350     0.577350    -0.577350     0.000000     0.000000     0.000000
    6    -1.000000   120.000000     0.577350     0.577350    -0.577350     0.000000     0.000000     0.000000
    7     1.000000   180.000000    -0.000000     0.707107     0.707107     0.000000     0.000000     0.000000
    8    -1.000000   180.000000    -0.000000     0.707107     0.707107     0.000000     0.000000     0.000000
    9     1.000000   180.000000     0.707107    -0.707107    -0.000000     0.000000     0.000000     0.000000
   10    -1.000000   180.000000     0.707107    -0.707107    -0.000000     0.000000     0.000000     0.000000
   11     1.000000   180.000000     0.707107     0.000000     0.707107     0.000000     0.000000     0.000000
   12    -1.000000   180.000000     0.707107     0.000000     0.707107     0.000000     0.000000     0.000000


--------------------------------------------------------------------------------------------------------




 Dimension of arrays:
   k-points           NKPTS =    332   k-points in BZ     NKDIM =    332   number of bands    NBANDS=     88
   number of dos      NEDOS =    301   number of ions     NIONS =      9
   non local maximal  LDIM  =      6   non local SUM 2l+1 LMDIM =     18
   total plane-waves  NPLWV =  41472
   max r-space proj   IRMAX =      1   max aug-charges    IRDMAX=  10649
   dimension x,y,z NGX =    18 NGY =   18 NGZ =  128
   dimension x,y,z NGXF=    36 NGYF=   36 NGZF=  256
   support grid    NGXF=    36 NGYF=   36 NGZF=  256
   ions per type =               1   8
   NGX,Y,Z   is equivalent  to a cutoff of  10.81, 10.81, 10.46 a.u.
   NGXF,Y,Z  is equivalent  to a cutoff of  21.61, 21.61, 20.92 a.u.

 SYSTEM =  unknown system                          
 POSCAR =  MLIP output to VASP                     

 Startparameter for this run:
   NWRITE =      2    write-flag & timer
   PREC   = accura    normal or accurate (medium, high low for compatibility)
   ISTART =      0    job   : 0-new  1-cont  2-samecut
   ICHARG =      2    charge: 1-file 2-atom 10-const
   ISPIN  =      1    spin polarized calculation?
   LNONCOLLINEAR =      F non collinear calculations
   LSORBIT =      F    spin-orbit coupling
   INIWAV =      1    electr: 0-lowe 1-rand  2-diag
   LASPH  =      F    aspherical Exc in radial PAW
   METAGGA=      F    non-selfconsistent MetaGGA calc.

 Electronic Relaxation 1
   ENCUT  =  370.0 eV  27.19 Ry    5.21 a.u.   4.34  4.34 31.91*2*pi/ulx,y,z
   ENINI  =  370.0     initial cutoff
   ENAUG  =  758.2 eV  augmentation charge cutoff
   NELM   =     60;   NELMIN=  2; NELMDL= -5     # of ELM steps 
   EDIFF  = 0.1E-03   stopping-criterion for ELM
   LREAL  =      F    real-space projection
   NLSPLINE    = F    spline interpolate recip. space projectors
   LCOMPAT=      F    compatible to vasp.4.4
   GGA_COMPAT  = T    GGA compatible to vasp.4.4-vasp.4.6
   LMAXPAW     = -100 max onsite density
   LMAXMIX     =    2 max onsite mixed and CHGCAR
   VOSKOWN=      0    Vosko Wilk Nusair interpolation
   ROPT   =    0.00000   0.00000
 Ionic relaxation
   EDIFFG = 0.1E-02   stopping-criterion for IOM
   NSW    =      0    number of steps for IOM
   NBLOCK =      1;   KBLOCK =      1    inner block; outer block 
   IBRION =     -1    ionic relax: 0-MD 1-quasi-New 2-CG
   NFREE  =      0    steps in history (QN), initial steepest desc. (CG)
   ISIF   =      3    stress and relaxation
   IWAVPR =     10    prediction:  0-non 1-charg 2-wave 3-comb
   ISYM   =      2    0-nonsym 1-usesym 2-fastsym
   LCORR  =      T    Harris-Foulkes like correction to forces

   POTIM  = 0.5000    time-step for ionic-motion
   TEIN   =    0.0    initial temperature
   TEBEG  =    0.0;   TEEND  =   0.0 temperature during run
   SMASS  =  -3.00    Nose mass-parameter (am)
   estimated Nose-frequenzy (Omega)   =  0.10E-29 period in steps =****** mass=  -0.175E-27a.u.
   SCALEE = 1.0000    scale energy and forces
   NPACO  =    256;   APACO  = 16.0  distance and # of slots for P.C.
   PSTRESS=    0.0 pullay stress

  Mass of Ions in am
   POMASS =  63.55195.08
  Ionic Valenz
   ZVAL   =  17.00 16.00
  Atomic Wigner-Seitz radii
   RWIGS  =  -1.00 -1.00
  virtual crystal weights 
   VCA    =   1.00  1.00
   NELECT =     145.0000    total number of electrons
   NUPDOWN=      -1.0000    fix difference up-down

 DOS related values:
   EMIN   =  10.00;   EMAX   =-10.00  energy-range for DOS
   EFERMI =   0.00
   ISMEAR =     2;   SIGMA  =   0.01  broadening in eV -4-tet -1-fermi 0-gaus

 Electronic relaxation 2 (details)
   IALGO  =     38    algorithm
   LDIAG  =      T    sub-space diagonalisation (order eigenvalues)
   LSUBROT=      F    optimize rotation matrix (better conditioning)
   TURBO    =      0    0=normal 1=particle mesh
   IRESTART =      0    0=no restart 2=restart with 2 vectors
   NREBOOT  =      0    no. of reboots
   NMIN     =      0    reboot dimension
   EREF     =   0.00    reference energy to select bands
   IMIX   =      4    mixing-type and parameters
     AMIX     =   0.40;   BMIX     =  1.00
     AMIX_MAG =   1.60;   BMIX_MAG =  1.00
     AMIN     =   0.10
     WC   =   100.;   INIMIX=   1;  MIXPRE=   1;  MAXMIX= -45

 Intra band minimization:
   WEIMIN = 0.0000     energy-eigenvalue tresh-hold
   EBREAK =  0.28E-06  absolut break condition
   DEPER  =   0.30     relativ break condition  

   TIME   =   0.40     timestep for ELM

  volume/ion in A,a.u.               =      15.01       101.31
  Fermi-wavevector in a.u.,A,eV,Ry     =   1.676120  3.167407 38.223904  2.809378
  Thomas-Fermi vector in A             =   2.760619
 
 Write flags
   LWAVE        =      T    write WAVECAR
   LDOWNSAMPLE  =      F    k-point downsampling of WAVECAR
   LCHARG       =      T    write CHGCAR
   LVTOT        =      F    write LOCPOT, total local potential
   LVHAR        =      F    write LOCPOT, Hartree potential only
   LELF         =      F    write electronic localiz. function (ELF)
   LORBIT       =      0    0 simple, 1 ext, 2 COOP (PROOUT), +10 PAW based schemes


 Dipole corrections
   LMONO  =      F    monopole corrections only (constant potential shift)
   LDIPOL =      F    correct potential (dipole corrections)
   IDIPOL =      0    1-x, 2-y, 3-z, 4-all directions 
   EPSILON=  1.0000000 bulk dielectric constant

 Exchange correlation treatment:
   GGA     =    --    GGA type
   LEXCH   =     8    internal setting for exchange type
   VOSKOWN=      0    Vosko Wilk Nusair interpolation
   LHFCALC =     F    Hartree Fock is set to
   LHFONE  =     F    Hartree Fock one center treatment
   AEXX    =    0.0000 exact exchange contribution

 Linear response parameters
   LEPSILON=     F    determine dielectric tensor
   LRPA    =     F    only Hartree local field effects (RPA)
   LNABLA  =     F    use nabla operator in PAW spheres
   LVEL    =     F    velocity operator in full k-point grid
   LINTERFAST=   F  fast interpolation
   KINTER  =     0    interpolate to denser k-point grid
   CSHIFT  =0.1000    complex shift for real part using Kramers Kronig
   OMEGAMAX=  -1.0    maximum frequency
   DEG_THRESHOLD= 0.2000000E-02 threshold for treating states as degnerate
   RTIME   =   -0.100 relaxation time in fs
  (WPLASMAI=    0.000 imaginary part of plasma frequency in eV, 0.658/RTIME)
   DFIELD  = 0.0000000 0.0000000 0.0000000 field for delta impulse in time
 
 Orbital magnetization related:
   ORBITALMAG=     F  switch on orbital magnetization
   LCHIMAG   =     F  perturbation theory with respect to B field
   DQ        =  0.001000  dq finite difference perturbation B field
   LLRAUG    =     F  two centre corrections for induced B field



--------------------------------------------------------------------------------------------------------


 Static calculation
 charge density and potential will be updated during run
 non-spin polarized calculation
 Variant of blocked Davidson
 Davidson routine will perform the subspace rotation
 perform sub-space diagonalisation
    after iterative eigenvector-optimisation
 modified Broyden-mixing scheme, WC =      100.0
 initial mixing is a Kerker type mixing with AMIX =  0.4000 and BMIX =      1.0000
 Hartree-type preconditioning will be used
 using additional bands           15
 reciprocal scheme for non local part
 use partial core corrections
 calculate Harris-corrections to forces 
   (improved forces if not selfconsistent)
 use gradient corrections 
 use of overlap-Matrix (Vanderbilt PP)
 Methfessel and Paxton  Order N= 2 SIGMA  =   0.01


--------------------------------------------------------------------------------------------------------


  energy-cutoff  :      370.00
  volume of cell :      135.11
      direct lattice vectors                 reciprocal lattice vectors
     0.000000000  1.957950000  1.957950000     0.170246091  0.170246091  0.340492181
     1.957950000 -1.957950000  0.000000000     0.340492181 -0.170246091  0.170246091
    11.747700000 11.747700000-11.747700000     0.028374348  0.028374348 -0.028374348

  length of vectors
     2.768959444  2.768959444 20.347613272     0.417016053  0.417016053  0.049145813


 
 k-points in units of 2pi/SCALE and weight: autoGR kpoint generation:   332 (irred),
   0.00000000  0.00000000  0.00000000       0.000
  -0.00851230  0.00851230  0.00000000       0.002
  -0.01702461  0.01702461 -0.00000000       0.002
  -0.02553691  0.02553691 -0.00000000       0.002
  -0.03404922  0.03404922  0.00000000       0.002
  -0.04256152  0.04256152 -0.00000000       0.002
  -0.05107383  0.05107383 -0.00000000       0.002
  -0.05958613  0.05958613  0.00000000       0.002
  -0.06809844  0.06809844 -0.00000000       0.002
  -0.07661074  0.07661074  0.00000000       0.002
  -0.08512305  0.08512305  0.00000000       0.002
  -0.09363535  0.09363535 -0.00000000       0.002
  -0.10214765  0.10214765 -0.00000000       0.002
  -0.11065996  0.11065996  0.00000000       0.002
  -0.11917226  0.11917226 -0.00000000       0.002
  -0.12768457  0.12768457  0.00000000       0.002
  -0.13619687  0.13619687  0.00000000       0.002
  -0.14470918  0.14470918 -0.00000000       0.002
  -0.15322148  0.15322148  0.00000000       0.002
  -0.16173379  0.16173379  0.00000000       0.002
   0.17024609 -0.00000000  0.17024609       0.001
   0.16173379  0.00851230  0.17024609       0.002
   0.15322148  0.01702461  0.17024609       0.002
   0.14470918  0.02553691  0.17024609       0.002
   0.13619687  0.03404922  0.17024609       0.002
   0.12768457  0.04256152  0.17024609       0.002
   0.11917226  0.05107383  0.17024609       0.002
   0.11065996  0.05958613  0.17024609       0.002
   0.10214765  0.06809844  0.17024609       0.002
   0.09363535  0.07661074  0.17024609       0.002
   0.08512305  0.08512305  0.17024609       0.001
   0.00945812  0.00945812 -0.00945812       0.001
   0.00094581  0.01797042 -0.00945812       0.003
  -0.00756649  0.02648273 -0.00945812       0.003
  -0.01607880  0.03499503 -0.00945812       0.003
  -0.02459110  0.04350733 -0.00945812       0.003
  -0.03310341  0.05201964 -0.00945812       0.003
  -0.04161571  0.06053194 -0.00945812       0.003
  -0.05012802  0.06904425 -0.00945812       0.003
  -0.05864032  0.07755655 -0.00945812       0.003
  -0.06715262  0.08606886 -0.00945812       0.003
  -0.07566493  0.09458116 -0.00945812       0.003
  -0.08417723  0.10309347 -0.00945812       0.003
  -0.09268954  0.11160577 -0.00945812       0.003
  -0.10120184  0.12011808 -0.00945812       0.003
  -0.10971415  0.12863038 -0.00945812       0.003
  -0.11822645  0.13714268 -0.00945812       0.003
  -0.12673876  0.14565499 -0.00945812       0.003
  -0.13525106  0.15416729 -0.00945812       0.003
  -0.14376337  0.16267960 -0.00945812       0.003
  -0.15227567  0.17119190 -0.00945812       0.003
   0.17970421  0.00945812  0.16078797       0.001
   0.17119190  0.01797042  0.16078797       0.003
   0.16267960  0.02648273  0.16078797       0.003
   0.15416729  0.03499503  0.16078797       0.003
   0.14565499  0.04350733  0.16078797       0.003
   0.13714268  0.05201964  0.16078797       0.003
   0.12863038  0.06053194  0.16078797       0.003
   0.12011808  0.06904425  0.16078797       0.003
   0.11160577  0.07755655  0.16078797       0.003
   0.10309347  0.08606886  0.16078797       0.003
   0.09458116  0.09458116  0.16078797       0.002
  -0.00851230  0.01702461  0.00851230       0.002
  -0.01702461  0.02553691  0.00851230       0.003
  -0.02553691  0.03404922  0.00851230       0.003
  -0.03404922  0.04256152  0.00851230       0.003
  -0.04256152  0.05107383  0.00851230       0.003
  -0.05107383  0.05958613  0.00851230       0.003
  -0.05958613  0.06809844  0.00851230       0.003
  -0.06809844  0.07661074  0.00851230       0.003
  -0.07661074  0.08512305  0.00851230       0.003
  -0.08512305  0.09363535  0.00851230       0.003
  -0.09363535  0.10214765  0.00851230       0.003
  -0.10214765  0.11065996  0.00851230       0.003
  -0.11065996  0.11917226  0.00851230       0.003
  -0.11917226  0.12768457  0.00851230       0.003
  -0.12768457  0.13619687  0.00851230       0.003
  -0.13619687  0.14470918  0.00851230       0.003
  -0.14470918  0.15322148  0.00851230       0.003
  -0.15322148  0.16173379  0.00851230       0.003
  -0.01702461 -0.14470918 -0.16173379       0.003
  -0.02553691 -0.13619687 -0.16173379       0.003
  -0.03404922 -0.12768457 -0.16173379       0.003
  -0.04256152 -0.11917226 -0.16173379       0.003
  -0.05107383 -0.11065996 -0.16173379       0.003
  -0.05958613 -0.10214765 -0.16173379       0.003
  -0.06809844 -0.09363535 -0.16173379       0.003
  -0.07661074 -0.08512305 -0.16173379       0.003
   0.00094581  0.02648273 -0.00094581       0.002
  -0.00756649  0.03499503 -0.00094581       0.003
  -0.01607880  0.04350733 -0.00094581       0.003
  -0.02459110  0.05201964 -0.00094581       0.003
  -0.03310341  0.06053194 -0.00094581       0.003
  -0.04161571  0.06904425 -0.00094581       0.003
  -0.05012802  0.07755655 -0.00094581       0.003
  -0.05864032  0.08606886 -0.00094581       0.003
  -0.06715262  0.09458116 -0.00094581       0.003
  -0.07566493  0.10309347 -0.00094581       0.003
  -0.08417723  0.11160577 -0.00094581       0.003
  -0.09268954  0.12011808 -0.00094581       0.003
  -0.10120184  0.12863038 -0.00094581       0.003
  -0.10971415  0.13714268 -0.00094581       0.003
  -0.11822645  0.14565499 -0.00094581       0.003
  -0.12673876  0.15416729 -0.00094581       0.003
  -0.13525106  0.16267960 -0.00094581       0.003
  -0.14376337  0.17119190 -0.00094581       0.003
  -0.00756649 -0.13525106 -0.17119190       0.003
  -0.01607880 -0.12673876 -0.17119190       0.003
  -0.02459110 -0.11822645 -0.17119190       0.003
  -0.03310341 -0.10971415 -0.17119190       0.003
  -0.04161571 -0.10120184 -0.17119190       0.003
  -0.05012802 -0.09268954 -0.17119190       0.003
  -0.05864032 -0.08417723 -0.17119190       0.003
  -0.06715262 -0.07566493 -0.17119190       0.003
  -0.01797042  0.00756649  0.01797042       0.002
  -0.02648273  0.01607880  0.01797042       0.003
  -0.03499503  0.02459110  0.01797042       0.003
  -0.04350733  0.03310341  0.01797042       0.003
  -0.05201964  0.04161571  0.01797042       0.003
  -0.06053194  0.05012802  0.01797042       0.003
  -0.06904425  0.05864032  0.01797042       0.003
  -0.07755655  0.06715262  0.01797042       0.003
  -0.08606886  0.07566493  0.01797042       0.003
  -0.09458116  0.08417723  0.01797042       0.003
  -0.10309347  0.09268954  0.01797042       0.003
  -0.11160577  0.10120184  0.01797042       0.003
  -0.12011808  0.10971415  0.01797042       0.003
  -0.12863038  0.11822645  0.01797042       0.003
  -0.13714268  0.12673876  0.01797042       0.003
  -0.14565499  0.13525106  0.01797042       0.003
  -0.15416729  0.14376337  0.01797042       0.003
  -0.16267960  0.15227567  0.01797042       0.003
  -0.02648273 -0.15416729 -0.15227567       0.003
  -0.03499503 -0.14565499 -0.15227567       0.003
  -0.04350733 -0.13714268 -0.15227567       0.003
  -0.05201964 -0.12863038 -0.15227567       0.003
  -0.06053194 -0.12011808 -0.15227567       0.003
  -0.06904425 -0.11160577 -0.15227567       0.003
  -0.07755655 -0.10309347 -0.15227567       0.003
  -0.08606886 -0.09458116 -0.15227567       0.003
  -0.01702461  0.03404922  0.01702461       0.002
  -0.02553691  0.04256152  0.01702461       0.003
  -0.03404922  0.05107383  0.01702461       0.003
  -0.04256152  0.05958613  0.01702461       0.003
  -0.05107383  0.06809844  0.01702461       0.003
  -0.05958613  0.07661074  0.01702461       0.003
  -0.06809844  0.08512305  0.01702461       0.003
  -0.07661074  0.09363535  0.01702461       0.003
  -0.08512305  0.10214765  0.01702461       0.003
  -0.09363535  0.11065996  0.01702461       0.003
  -0.10214765  0.11917226  0.01702461       0.003
  -0.11065996  0.12768457  0.01702461       0.003
  -0.11917226  0.13619687  0.01702461       0.003
  -0.12768457  0.14470918  0.01702461       0.003
  -0.13619687  0.15322148  0.01702461       0.003
  -0.02553691 -0.12768457 -0.15322148       0.003
  -0.03404922 -0.11917226 -0.15322148       0.003
  -0.04256152 -0.11065996 -0.15322148       0.003
  -0.05107383 -0.10214765 -0.15322148       0.003
  -0.05958613 -0.09363535 -0.15322148       0.003
  -0.06809844 -0.08512305 -0.15322148       0.003
  -0.07661074 -0.07661074 -0.15322148       0.002
  -0.00756649  0.04350733  0.00756649       0.002
  -0.01607880  0.05201964  0.00756649       0.003
  -0.02459110  0.06053194  0.00756649       0.003
  -0.03310341  0.06904425  0.00756649       0.003
  -0.04161571  0.07755655  0.00756649       0.003
  -0.05012802  0.08606886  0.00756649       0.003
  -0.05864032  0.09458116  0.00756649       0.003
  -0.06715262  0.10309347  0.00756649       0.003
  -0.07566493  0.11160577  0.00756649       0.003
  -0.08417723  0.12011808  0.00756649       0.003
  -0.09268954  0.12863038  0.00756649       0.003
  -0.10120184  0.13714268  0.00756649       0.003
  -0.10971415  0.14565499  0.00756649       0.003
  -0.11822645  0.15416729  0.00756649       0.003
  -0.12673876  0.16267960  0.00756649       0.003
  -0.01607880 -0.11822645 -0.16267960       0.003
  -0.02459110 -0.10971415 -0.16267960       0.003
  -0.03310341 -0.10120184 -0.16267960       0.003
  -0.04161571 -0.09268954 -0.16267960       0.003
  -0.05012802 -0.08417723 -0.16267960       0.003
  -0.05864032 -0.07566493 -0.16267960       0.003
  -0.06715262 -0.06715262 -0.16267960       0.002
  -0.02648273  0.02459110  0.02648273       0.002
  -0.03499503  0.03310341  0.02648273       0.003
  -0.04350733  0.04161571  0.02648273       0.003
  -0.05201964  0.05012802  0.02648273       0.003
  -0.06053194  0.05864032  0.02648273       0.003
  -0.06904425  0.06715262  0.02648273       0.003
  -0.07755655  0.07566493  0.02648273       0.003
  -0.08606886  0.08417723  0.02648273       0.003
  -0.09458116  0.09268954  0.02648273       0.003
  -0.10309347  0.10120184  0.02648273       0.003
  -0.11160577  0.10971415  0.02648273       0.003
  -0.12011808  0.11822645  0.02648273       0.003
  -0.12863038  0.12673876  0.02648273       0.003
  -0.13714268  0.13525106  0.02648273       0.003
  -0.14565499  0.14376337  0.02648273       0.003
  -0.03499503 -0.13714268 -0.14376337       0.003
  -0.04350733 -0.12863038 -0.14376337       0.003
  -0.05201964 -0.12011808 -0.14376337       0.003
  -0.06053194 -0.11160577 -0.14376337       0.003
  -0.06904425 -0.10309347 -0.14376337       0.003
  -0.07755655 -0.09458116 -0.14376337       0.003
  -0.08606886 -0.08606886 -0.14376337       0.002
  -0.02553691  0.05107383  0.02553691       0.002
  -0.03404922  0.05958613  0.02553691       0.003
  -0.04256152  0.06809844  0.02553691       0.003
  -0.05107383  0.07661074  0.02553691       0.003
  -0.05958613  0.08512305  0.02553691       0.003
  -0.06809844  0.09363535  0.02553691       0.003
  -0.07661074  0.10214765  0.02553691       0.003
  -0.08512305  0.11065996  0.02553691       0.003
  -0.09363535  0.11917226  0.02553691       0.003
  -0.10214765  0.12768457  0.02553691       0.003
  -0.11065996  0.13619687  0.02553691       0.003
  -0.11917226  0.14470918  0.02553691       0.003
  -0.03404922 -0.11065996 -0.14470918       0.003
  -0.04256152 -0.10214765 -0.14470918       0.003
  -0.05107383 -0.09363535 -0.14470918       0.003
  -0.05958613 -0.08512305 -0.14470918       0.003
  -0.06809844 -0.07661074 -0.14470918       0.003
  -0.01607880  0.06053194  0.01607880       0.002
  -0.02459110  0.06904425  0.01607880       0.003
  -0.03310341  0.07755655  0.01607880       0.003
  -0.04161571  0.08606886  0.01607880       0.003
  -0.05012802  0.09458116  0.01607880       0.003
  -0.05864032  0.10309347  0.01607880       0.003
  -0.06715262  0.11160577  0.01607880       0.003
  -0.07566493  0.12011808  0.01607880       0.003
  -0.08417723  0.12863038  0.01607880       0.003
  -0.09268954  0.13714268  0.01607880       0.003
  -0.10120184  0.14565499  0.01607880       0.003
  -0.10971415  0.15416729  0.01607880       0.003
  -0.02459110 -0.10120184 -0.15416729       0.003
  -0.03310341 -0.09268954 -0.15416729       0.003
  -0.04161571 -0.08417723 -0.15416729       0.003
  -0.05012802 -0.07566493 -0.15416729       0.003
  -0.05864032 -0.06715262 -0.15416729       0.003
  -0.03499503  0.04161571  0.03499503       0.002
  -0.04350733  0.05012802  0.03499503       0.003
  -0.05201964  0.05864032  0.03499503       0.003
  -0.06053194  0.06715262  0.03499503       0.003
  -0.06904425  0.07566493  0.03499503       0.003
  -0.07755655  0.08417723  0.03499503       0.003
  -0.08606886  0.09268954  0.03499503       0.003
  -0.09458116  0.10120184  0.03499503       0.003
  -0.10309347  0.10971415  0.03499503       0.003
  -0.11160577  0.11822645  0.03499503       0.003
  -0.12011808  0.12673876  0.03499503       0.003
  -0.12863038  0.13525106  0.03499503       0.003
  -0.04350733 -0.12011808 -0.13525106       0.003
  -0.05201964 -0.11160577 -0.13525106       0.003
  -0.06053194 -0.10309347 -0.13525106       0.003
  -0.06904425 -0.09458116 -0.13525106       0.003
  -0.07755655 -0.08606886 -0.13525106       0.003
  -0.03404922  0.06809844  0.03404922       0.002
  -0.04256152  0.07661074  0.03404922       0.003
  -0.05107383  0.08512305  0.03404922       0.003
  -0.05958613  0.09363535  0.03404922       0.003
  -0.06809844  0.10214765  0.03404922       0.003
  -0.07661074  0.11065996  0.03404922       0.003
  -0.08512305  0.11917226  0.03404922       0.003
  -0.09363535  0.12768457  0.03404922       0.003
  -0.10214765  0.13619687  0.03404922       0.003
  -0.04256152 -0.09363535 -0.13619687       0.003
  -0.05107383 -0.08512305 -0.13619687       0.003
  -0.05958613 -0.07661074 -0.13619687       0.003
  -0.06809844 -0.06809844 -0.13619687       0.002
  -0.02459110  0.07755655  0.02459110       0.002
  -0.03310341  0.08606886  0.02459110       0.003
  -0.04161571  0.09458116  0.02459110       0.003
  -0.05012802  0.10309347  0.02459110       0.003
  -0.05864032  0.11160577  0.02459110       0.003
  -0.06715262  0.12011808  0.02459110       0.003
  -0.07566493  0.12863038  0.02459110       0.003
  -0.08417723  0.13714268  0.02459110       0.003
  -0.09268954  0.14565499  0.02459110       0.003
  -0.03310341 -0.08417723 -0.14565499       0.003
  -0.04161571 -0.07566493 -0.14565499       0.003
  -0.05012802 -0.06715262 -0.14565499       0.003
  -0.05864032 -0.05864032 -0.14565499       0.002
  -0.04350733  0.05864032  0.04350733       0.002
  -0.05201964  0.06715262  0.04350733       0.003
  -0.06053194  0.07566493  0.04350733       0.003
  -0.06904425  0.08417723  0.04350733       0.003
  -0.07755655  0.09268954  0.04350733       0.003
  -0.08606886  0.10120184  0.04350733       0.003
  -0.09458116  0.10971415  0.04350733       0.003
  -0.10309347  0.11822645  0.04350733       0.003
  -0.11160577  0.12673876  0.04350733       0.003
  -0.05201964 -0.10309347 -0.12673876       0.003
  -0.06053194 -0.09458116 -0.12673876       0.003
  -0.06904425 -0.08606886 -0.12673876       0.003
  -0.07755655 -0.07755655 -0.12673876       0.002
  -0.04256152  0.08512305  0.04256152       0.002
  -0.05107383  0.09363535  0.04256152       0.003
  -0.05958613  0.10214765  0.04256152       0.003
  -0.06809844  0.11065996  0.04256152       0.003
  -0.07661074  0.11917226  0.04256152       0.003
  -0.08512305  0.12768457  0.04256152       0.003
  -0.05107383 -0.07661074 -0.12768457       0.003
  -0.05958613 -0.06809844 -0.12768457       0.003
  -0.03310341  0.09458116  0.03310341       0.002
  -0.04161571  0.10309347  0.03310341       0.003
  -0.05012802  0.11160577  0.03310341       0.003
  -0.05864032  0.12011808  0.03310341       0.003
  -0.06715262  0.12863038  0.03310341       0.003
  -0.07566493  0.13714268  0.03310341       0.003
  -0.04161571 -0.06715262 -0.13714268       0.003
  -0.05012802 -0.05864032 -0.13714268       0.003
  -0.05201964  0.07566493  0.05201964       0.002
  -0.06053194  0.08417723  0.05201964       0.003
  -0.06904425  0.09268954  0.05201964       0.003
  -0.07755655  0.10120184  0.05201964       0.003
  -0.08606886  0.10971415  0.05201964       0.003
  -0.09458116  0.11822645  0.05201964       0.003
  -0.06053194 -0.08606886 -0.11822645       0.003
  -0.06904425 -0.07755655 -0.11822645       0.003
  -0.05107383  0.10214765  0.05107383       0.002
  -0.05958613  0.11065996  0.05107383       0.003
  -0.06809844  0.11917226  0.05107383       0.003
  -0.05958613 -0.05958613 -0.11917226       0.002
  -0.04161571  0.11160577  0.04161571       0.002
  -0.05012802  0.12011808  0.04161571       0.003
  -0.05864032  0.12863038  0.04161571       0.003
  -0.05012802 -0.05012802 -0.12863038       0.002
  -0.06053194  0.09268954  0.06053194       0.002
  -0.06904425  0.10120184  0.06053194       0.003
  -0.07755655  0.10971415  0.06053194       0.003
  -0.06904425 -0.06904425 -0.10971415       0.002
 
 k-points in reciprocal lattice and weights: autoGR kpoint generation:   332 (irred),
   0.00000000  0.00000000  0.00000000       0.000
   0.01666667 -0.03333333  0.00000000       0.002
   0.03333333 -0.06666667  0.00000000       0.002
   0.05000000 -0.10000000  0.00000000       0.002
   0.06666667 -0.13333333  0.00000000       0.002
   0.08333333 -0.16666667  0.00000000       0.002
   0.10000000 -0.20000000  0.00000000       0.002
   0.11666667 -0.23333333  0.00000000       0.002
   0.13333333 -0.26666667  0.00000000       0.002
   0.15000000 -0.30000000  0.00000000       0.002
   0.16666667 -0.33333333  0.00000000       0.002
   0.18333333 -0.36666667  0.00000000       0.002
   0.20000000 -0.40000000  0.00000000       0.002
   0.21666667 -0.43333333  0.00000000       0.002
   0.23333333 -0.46666667  0.00000000       0.002
   0.25000000 -0.50000000  0.00000000       0.002
   0.26666667 -0.53333333  0.00000000       0.002
   0.28333333 -0.56666667  0.00000000       0.002
   0.30000000 -0.60000000  0.00000000       0.002
   0.31666667 -0.63333333  0.00000000       0.002
   0.33333333  0.33333333  0.00000000       0.001
   0.35000000  0.30000000  0.00000000       0.002
   0.36666667  0.26666667  0.00000000       0.002
   0.38333333  0.23333333  0.00000000       0.002
   0.40000000  0.20000000  0.00000000       0.002
   0.41666667  0.16666667  0.00000000       0.002
   0.43333333  0.13333333  0.00000000       0.002
   0.45000000  0.10000000  0.00000000       0.002
   0.46666667  0.06666667  0.00000000       0.002
   0.48333333  0.03333333  0.00000000       0.002
   0.50000000  0.00000000  0.00000000       0.001
   0.00000000  0.00000000  0.33333333       0.001
   0.01666667 -0.03333333  0.33333333       0.003
   0.03333333 -0.06666667  0.33333333       0.003
   0.05000000 -0.10000000  0.33333333       0.003
   0.06666667 -0.13333333  0.33333333       0.003
   0.08333333 -0.16666667  0.33333333       0.003
   0.10000000 -0.20000000  0.33333333       0.003
   0.11666667 -0.23333333  0.33333333       0.003
   0.13333333 -0.26666667  0.33333333       0.003
   0.15000000 -0.30000000  0.33333333       0.003
   0.16666667 -0.33333333  0.33333333       0.003
   0.18333333 -0.36666667  0.33333333       0.003
   0.20000000 -0.40000000  0.33333333       0.003
   0.21666667 -0.43333333  0.33333333       0.003
   0.23333333 -0.46666667  0.33333333       0.003
   0.25000000 -0.50000000  0.33333333       0.003
   0.26666667 -0.53333333  0.33333333       0.003
   0.28333333 -0.56666667  0.33333333       0.003
   0.30000000 -0.60000000  0.33333333       0.003
   0.31666667 -0.63333333  0.33333333       0.003
   0.33333333  0.33333333  0.33333333       0.001
   0.35000000  0.30000000  0.33333333       0.003
   0.36666667  0.26666667  0.33333333       0.003
   0.38333333  0.23333333  0.33333333       0.003
   0.40000000  0.20000000  0.33333333       0.003
   0.41666667  0.16666667  0.33333333       0.003
   0.43333333  0.13333333  0.33333333       0.003
   0.45000000  0.10000000  0.33333333       0.003
   0.46666667  0.06666667  0.33333333       0.003
   0.48333333  0.03333333  0.33333333       0.003
   0.50000000  0.00000000  0.33333333       0.002
   0.05000000 -0.05000000  0.00000000       0.002
   0.06666667 -0.08333333  0.00000000       0.003
   0.08333333 -0.11666667  0.00000000       0.003
   0.10000000 -0.15000000  0.00000000       0.003
   0.11666667 -0.18333333  0.00000000       0.003
   0.13333333 -0.21666667  0.00000000       0.003
   0.15000000 -0.25000000  0.00000000       0.003
   0.16666667 -0.28333333  0.00000000       0.003
   0.18333333 -0.31666667  0.00000000       0.003
   0.20000000 -0.35000000  0.00000000       0.003
   0.21666667 -0.38333333  0.00000000       0.003
   0.23333333 -0.41666667  0.00000000       0.003
   0.25000000 -0.45000000  0.00000000       0.003
   0.26666667 -0.48333333  0.00000000       0.003
   0.28333333 -0.51666667  0.00000000       0.003
   0.30000000 -0.55000000  0.00000000       0.003
   0.31666667 -0.58333333  0.00000000       0.003
   0.33333333 -0.61666667  0.00000000       0.003
  -0.60000000  0.25000000  0.00000000       0.003
  -0.58333333  0.21666667  0.00000000       0.003
  -0.56666667  0.18333333  0.00000000       0.003
  -0.55000000  0.15000000  0.00000000       0.003
  -0.53333333  0.11666667  0.00000000       0.003
  -0.51666667  0.08333333  0.00000000       0.003
  -0.50000000  0.05000000  0.00000000       0.003
  -0.48333333  0.01666667  0.00000000       0.003
   0.05000000 -0.05000000  0.33333333       0.002
   0.06666667 -0.08333333  0.33333333       0.003
   0.08333333 -0.11666667  0.33333333       0.003
   0.10000000 -0.15000000  0.33333333       0.003
   0.11666667 -0.18333333  0.33333333       0.003
   0.13333333 -0.21666667  0.33333333       0.003
   0.15000000 -0.25000000  0.33333333       0.003
   0.16666667 -0.28333333  0.33333333       0.003
   0.18333333 -0.31666667  0.33333333       0.003
   0.20000000 -0.35000000  0.33333333       0.003
   0.21666667 -0.38333333  0.33333333       0.003
   0.23333333 -0.41666667  0.33333333       0.003
   0.25000000 -0.45000000  0.33333333       0.003
   0.26666667 -0.48333333  0.33333333       0.003
   0.28333333 -0.51666667  0.33333333       0.003
   0.30000000 -0.55000000  0.33333333       0.003
   0.31666667 -0.58333333  0.33333333       0.003
   0.33333333 -0.61666667  0.33333333       0.003
  -0.60000000  0.25000000  0.33333333       0.003
  -0.58333333  0.21666667  0.33333333       0.003
  -0.56666667  0.18333333  0.33333333       0.003
  -0.55000000  0.15000000  0.33333333       0.003
  -0.53333333  0.11666667  0.33333333       0.003
  -0.51666667  0.08333333  0.33333333       0.003
  -0.50000000  0.05000000  0.33333333       0.003
  -0.48333333  0.01666667  0.33333333       0.003
   0.05000000 -0.05000000 -0.33333333       0.002
   0.06666667 -0.08333333 -0.33333333       0.003
   0.08333333 -0.11666667 -0.33333333       0.003
   0.10000000 -0.15000000 -0.33333333       0.003
   0.11666667 -0.18333333 -0.33333333       0.003
   0.13333333 -0.21666667 -0.33333333       0.003
   0.15000000 -0.25000000 -0.33333333       0.003
   0.16666667 -0.28333333 -0.33333333       0.003
   0.18333333 -0.31666667 -0.33333333       0.003
   0.20000000 -0.35000000 -0.33333333       0.003
   0.21666667 -0.38333333 -0.33333333       0.003
   0.23333333 -0.41666667 -0.33333333       0.003
   0.25000000 -0.45000000 -0.33333333       0.003
   0.26666667 -0.48333333 -0.33333333       0.003
   0.28333333 -0.51666667 -0.33333333       0.003
   0.30000000 -0.55000000 -0.33333333       0.003
   0.31666667 -0.58333333 -0.33333333       0.003
   0.33333333 -0.61666667 -0.33333333       0.003
  -0.60000000  0.25000000 -0.33333333       0.003
  -0.58333333  0.21666667 -0.33333333       0.003
  -0.56666667  0.18333333 -0.33333333       0.003
  -0.55000000  0.15000000 -0.33333333       0.003
  -0.53333333  0.11666667 -0.33333333       0.003
  -0.51666667  0.08333333 -0.33333333       0.003
  -0.50000000  0.05000000 -0.33333333       0.003
  -0.48333333  0.01666667 -0.33333333       0.003
   0.10000000 -0.10000000  0.00000000       0.002
   0.11666667 -0.13333333  0.00000000       0.003
   0.13333333 -0.16666667  0.00000000       0.003
   0.15000000 -0.20000000  0.00000000       0.003
   0.16666667 -0.23333333  0.00000000       0.003
   0.18333333 -0.26666667  0.00000000       0.003
   0.20000000 -0.30000000  0.00000000       0.003
   0.21666667 -0.33333333  0.00000000       0.003
   0.23333333 -0.36666667  0.00000000       0.003
   0.25000000 -0.40000000  0.00000000       0.003
   0.26666667 -0.43333333  0.00000000       0.003
   0.28333333 -0.46666667  0.00000000       0.003
   0.30000000 -0.50000000  0.00000000       0.003
   0.31666667 -0.53333333  0.00000000       0.003
   0.33333333 -0.56666667  0.00000000       0.003
  -0.55000000  0.20000000  0.00000000       0.003
  -0.53333333  0.16666667  0.00000000       0.003
  -0.51666667  0.13333333  0.00000000       0.003
  -0.50000000  0.10000000  0.00000000       0.003
  -0.48333333  0.06666667  0.00000000       0.003
  -0.46666667  0.03333333  0.00000000       0.003
  -0.45000000  0.00000000  0.00000000       0.002
   0.10000000 -0.10000000  0.33333333       0.002
   0.11666667 -0.13333333  0.33333333       0.003
   0.13333333 -0.16666667  0.33333333       0.003
   0.15000000 -0.20000000  0.33333333       0.003
   0.16666667 -0.23333333  0.33333333       0.003
   0.18333333 -0.26666667  0.33333333       0.003
   0.20000000 -0.30000000  0.33333333       0.003
   0.21666667 -0.33333333  0.33333333       0.003
   0.23333333 -0.36666667  0.33333333       0.003
   0.25000000 -0.40000000  0.33333333       0.003
   0.26666667 -0.43333333  0.33333333       0.003
   0.28333333 -0.46666667  0.33333333       0.003
   0.30000000 -0.50000000  0.33333333       0.003
   0.31666667 -0.53333333  0.33333333       0.003
   0.33333333 -0.56666667  0.33333333       0.003
  -0.55000000  0.20000000  0.33333333       0.003
  -0.53333333  0.16666667  0.33333333       0.003
  -0.51666667  0.13333333  0.33333333       0.003
  -0.50000000  0.10000000  0.33333333       0.003
  -0.48333333  0.06666667  0.33333333       0.003
  -0.46666667  0.03333333  0.33333333       0.003
  -0.45000000  0.00000000  0.33333333       0.002
   0.10000000 -0.10000000 -0.33333333       0.002
   0.11666667 -0.13333333 -0.33333333       0.003
   0.13333333 -0.16666667 -0.33333333       0.003
   0.15000000 -0.20000000 -0.33333333       0.003
   0.16666667 -0.23333333 -0.33333333       0.003
   0.18333333 -0.26666667 -0.33333333       0.003
   0.20000000 -0.30000000 -0.33333333       0.003
   0.21666667 -0.33333333 -0.33333333       0.003
   0.23333333 -0.36666667 -0.33333333       0.003
   0.25000000 -0.40000000 -0.33333333       0.003
   0.26666667 -0.43333333 -0.33333333       0.003
   0.28333333 -0.46666667 -0.33333333       0.003
   0.30000000 -0.50000000 -0.33333333       0.003
   0.31666667 -0.53333333 -0.33333333       0.003
   0.33333333 -0.56666667 -0.33333333       0.003
  -0.55000000  0.20000000 -0.33333333       0.003
  -0.53333333  0.16666667 -0.33333333       0.003
  -0.51666667  0.13333333 -0.33333333       0.003
  -0.50000000  0.10000000 -0.33333333       0.003
  -0.48333333  0.06666667 -0.33333333       0.003
  -0.46666667  0.03333333 -0.33333333       0.003
  -0.45000000  0.00000000 -0.33333333       0.002
   0.15000000 -0.15000000  0.00000000       0.002
   0.16666667 -0.18333333  0.00000000       0.003
   0.18333333 -0.21666667  0.00000000       0.003
   0.20000000 -0.25000000  0.00000000       0.003
   0.21666667 -0.28333333  0.00000000       0.003
   0.23333333 -0.31666667  0.00000000       0.003
   0.25000000 -0.35000000  0.00000000       0.003
   0.26666667 -0.38333333  0.00000000       0.003
   0.28333333 -0.41666667  0.00000000       0.003
   0.30000000 -0.45000000  0.00000000       0.003
   0.31666667 -0.48333333  0.00000000       0.003
   0.33333333 -0.51666667  0.00000000       0.003
  -0.50000000  0.15000000  0.00000000       0.003
  -0.48333333  0.11666667  0.00000000       0.003
  -0.46666667  0.08333333  0.00000000       0.003
  -0.45000000  0.05000000  0.00000000       0.003
  -0.43333333  0.01666667  0.00000000       0.003
   0.15000000 -0.15000000  0.33333333       0.002
   0.16666667 -0.18333333  0.33333333       0.003
   0.18333333 -0.21666667  0.33333333       0.003
   0.20000000 -0.25000000  0.33333333       0.003
   0.21666667 -0.28333333  0.33333333       0.003
   0.23333333 -0.31666667  0.33333333       0.003
   0.25000000 -0.35000000  0.33333333       0.003
   0.26666667 -0.38333333  0.33333333       0.003
   0.28333333 -0.41666667  0.33333333       0.003
   0.30000000 -0.45000000  0.33333333       0.003
   0.31666667 -0.48333333  0.33333333       0.003
   0.33333333 -0.51666667  0.33333333       0.003
  -0.50000000  0.15000000  0.33333333       0.003
  -0.48333333  0.11666667  0.33333333       0.003
  -0.46666667  0.08333333  0.33333333       0.003
  -0.45000000  0.05000000  0.33333333       0.003
  -0.43333333  0.01666667  0.33333333       0.003
   0.15000000 -0.15000000 -0.33333333       0.002
   0.16666667 -0.18333333 -0.33333333       0.003
   0.18333333 -0.21666667 -0.33333333       0.003
   0.20000000 -0.25000000 -0.33333333       0.003
   0.21666667 -0.28333333 -0.33333333       0.003
   0.23333333 -0.31666667 -0.33333333       0.003
   0.25000000 -0.35000000 -0.33333333       0.003
   0.26666667 -0.38333333 -0.33333333       0.003
   0.28333333 -0.41666667 -0.33333333       0.003
   0.30000000 -0.45000000 -0.33333333       0.003
   0.31666667 -0.48333333 -0.33333333       0.003
   0.33333333 -0.51666667 -0.33333333       0.003
  -0.50000000  0.15000000 -0.33333333       0.003
  -0.48333333  0.11666667 -0.33333333       0.003
  -0.46666667  0.08333333 -0.33333333       0.003
  -0.45000000  0.05000000 -0.33333333       0.003
  -0.43333333  0.01666667 -0.33333333       0.003
   0.20000000 -0.20000000  0.00000000       0.002
   0.21666667 -0.23333333  0.00000000       0.003
   0.23333333 -0.26666667  0.00000000       0.003
   0.25000000 -0.30000000  0.00000000       0.003
   0.26666667 -0.33333333  0.00000000       0.003
   0.28333333 -0.36666667  0.00000000       0.003
   0.30000000 -0.40000000  0.00000000       0.003
   0.31666667 -0.43333333  0.00000000       0.003
   0.33333333 -0.46666667  0.00000000       0.003
  -0.45000000  0.10000000  0.00000000       0.003
  -0.43333333  0.06666667  0.00000000       0.003
  -0.41666667  0.03333333  0.00000000       0.003
  -0.40000000  0.00000000  0.00000000       0.002
   0.20000000 -0.20000000  0.33333333       0.002
   0.21666667 -0.23333333  0.33333333       0.003
   0.23333333 -0.26666667  0.33333333       0.003
   0.25000000 -0.30000000  0.33333333       0.003
   0.26666667 -0.33333333  0.33333333       0.003
   0.28333333 -0.36666667  0.33333333       0.003
   0.30000000 -0.40000000  0.33333333       0.003
   0.31666667 -0.43333333  0.33333333       0.003
   0.33333333 -0.46666667  0.33333333       0.003
  -0.45000000  0.10000000  0.33333333       0.003
  -0.43333333  0.06666667  0.33333333       0.003
  -0.41666667  0.03333333  0.33333333       0.003
  -0.40000000  0.00000000  0.33333333       0.002
   0.20000000 -0.20000000 -0.33333333       0.002
   0.21666667 -0.23333333 -0.33333333       0.003
   0.23333333 -0.26666667 -0.33333333       0.003
   0.25000000 -0.30000000 -0.33333333       0.003
   0.26666667 -0.33333333 -0.33333333       0.003
   0.28333333 -0.36666667 -0.33333333       0.003
   0.30000000 -0.40000000 -0.33333333       0.003
   0.31666667 -0.43333333 -0.33333333       0.003
   0.33333333 -0.46666667 -0.33333333       0.003
  -0.45000000  0.10000000 -0.33333333       0.003
  -0.43333333  0.06666667 -0.33333333       0.003
  -0.41666667  0.03333333 -0.33333333       0.003
  -0.40000000  0.00000000 -0.33333333       0.002
   0.25000000 -0.25000000  0.00000000       0.002
   0.26666667 -0.28333333  0.00000000       0.003
   0.28333333 -0.31666667  0.00000000       0.003
   0.30000000 -0.35000000  0.00000000       0.003
   0.31666667 -0.38333333  0.00000000       0.003
   0.33333333 -0.41666667  0.00000000       0.003
  -0.40000000  0.05000000  0.00000000       0.003
  -0.38333333  0.01666667  0.00000000       0.003
   0.25000000 -0.25000000  0.33333333       0.002
   0.26666667 -0.28333333  0.33333333       0.003
   0.28333333 -0.31666667  0.33333333       0.003
   0.30000000 -0.35000000  0.33333333       0.003
   0.31666667 -0.38333333  0.33333333       0.003
   0.33333333 -0.41666667  0.33333333       0.003
  -0.40000000  0.05000000  0.33333333       0.003
  -0.38333333  0.01666667  0.33333333       0.003
   0.25000000 -0.25000000 -0.33333333       0.002
   0.26666667 -0.28333333 -0.33333333       0.003
   0.28333333 -0.31666667 -0.33333333       0.003
   0.30000000 -0.35000000 -0.33333333       0.003
   0.31666667 -0.38333333 -0.33333333       0.003
   0.33333333 -0.41666667 -0.33333333       0.003
  -0.40000000  0.05000000 -0.33333333       0.003
  -0.38333333  0.01666667 -0.33333333       0.003
   0.30000000 -0.30000000  0.00000000       0.002
   0.31666667 -0.33333333  0.00000000       0.003
   0.33333333 -0.36666667  0.00000000       0.003
  -0.35000000  0.00000000  0.00000000       0.002
   0.30000000 -0.30000000  0.33333333       0.002
   0.31666667 -0.33333333  0.33333333       0.003
   0.33333333 -0.36666667  0.33333333       0.003
  -0.35000000  0.00000000  0.33333333       0.002
   0.30000000 -0.30000000 -0.33333333       0.002
   0.31666667 -0.33333333 -0.33333333       0.003
   0.33333333 -0.36666667 -0.33333333       0.003
  -0.35000000  0.00000000 -0.33333333       0.002
 
 position of ions in fractional coordinates (direct lattice) 
   0.00000000  0.00000000  0.00000000
   0.66666667  0.33333333  0.11111111
   0.33333333  0.66666667  0.22222222
   0.00000000  0.00000000  0.33333333
   0.66666667  0.33333333  0.44444444
   0.33333333  0.66666667  0.55555556
   0.00000000  0.00000000  0.66666667
   0.66666667  0.33333333  0.77777778
   0.33333333  0.66666667  0.88888889
 
 position of ions in cartesian coordinates  (Angst):
   0.00000000  0.00000000  0.00000000
   1.95795000  1.95795000 -0.00000000
   3.91590000  1.95795000 -1.95795000
   3.91590000  3.91590000 -3.91590000
   5.87385000  5.87385000 -3.91590000
   7.83180000  5.87385000 -5.87385000
   7.83180000  7.83180000 -7.83180000
   9.78975000  9.78975000 -7.83180000
  11.74770000  9.78975000 -9.78975000
 


--------------------------------------------------------------------------------------------------------


 k-point  1 :   0.0000 0.0000 0.0000  plane waves:    2253
 k-point  2 :   0.0167-0.0333 0.0000  plane waves:    2231
 k-point  3 :   0.0333-0.0667 0.0000  plane waves:    2233
 k-point  4 :   0.0500-0.1000 0.0000  plane waves:    2239
 k-point  5 :   0.0667-0.1333 0.0000  plane waves:    2229
 k-point  6 :   0.0833-0.1667 0.0000  plane waves:    2203
 k-point  7 :   0.1000-0.2000 0.0000  plane waves:    2201
 k-point  8 :   0.1167-0.2333 0.0000  plane waves:    2199
 k-point  9 :   0.1333-0.2667 0.0000  plane waves:    2179
 k-point 10 :   0.1500-0.3000 0.0000  plane waves:    2181
 k-point 11 :   0.1667-0.3333 0.0000  plane waves:    2183
 k-point 12 :   0.1833-0.3667 0.0000  plane waves:    2182
 k-point 13 :   0.2000-0.4000 0.0000  plane waves:    2190
 k-point 14 :   0.2167-0.4333 0.0000  plane waves:    2192
 k-point 15 :   0.2333-0.4667 0.0000  plane waves:    2188
 k-point 16 :   0.2500-0.5000 0.0000  plane waves:    2180
 k-point 17 :   0.2667-0.5333 0.0000  plane waves:    2186
 k-point 18 :   0.2833-0.5667 0.0000  plane waves:    2174
 k-point 19 :   0.3000-0.6000 0.0000  plane waves:    2168
 k-point 20 :   0.3167-0.6333 0.0000  plane waves:    2156
 k-point 21 :   0.3333 0.3333 0.0000  plane waves:    2160
 k-point 22 :   0.3500 0.3000 0.0000  plane waves:    2160
 k-point 23 :   0.3667 0.2667 0.0000  plane waves:    2182
 k-point 24 :   0.3833 0.2333 0.0000  plane waves:    2178
 k-point 25 :   0.4000 0.2000 0.0000  plane waves:    2178
 k-point 26 :   0.4167 0.1667 0.0000  plane waves:    2178
 k-point 27 :   0.4333 0.1333 0.0000  plane waves:    2178
 k-point 28 :   0.4500 0.1000 0.0000  plane waves:    2178
 k-point 29 :   0.4667 0.0667 0.0000  plane waves:    2166
 k-point 30 :   0.4833 0.0333 0.0000  plane waves:    2162
 k-point 31 :   0.5000 0.0000 0.0000  plane waves:    2160
 k-point 32 :   0.0000 0.0000 0.3333  plane waves:    2242
 k-point 33 :   0.0167-0.0333 0.3333  plane waves:    2241
 k-point 34 :   0.0333-0.0667 0.3333  plane waves:    2236
 k-point 35 :   0.0500-0.1000 0.3333  plane waves:    2231
 k-point 36 :   0.0667-0.1333 0.3333  plane waves:    2225
 k-point 37 :   0.0833-0.1667 0.3333  plane waves:    2217
 k-point 38 :   0.1000-0.2000 0.3333  plane waves:    2200
 k-point 39 :   0.1167-0.2333 0.3333  plane waves:    2191
 k-point 40 :   0.1333-0.2667 0.3333  plane waves:    2182
 k-point 41 :   0.1500-0.3000 0.3333  plane waves:    2178
 k-point 42 :   0.1667-0.3333 0.3333  plane waves:    2187
 k-point 43 :   0.1833-0.3667 0.3333  plane waves:    2184
 k-point 44 :   0.2000-0.4000 0.3333  plane waves:    2189
 k-point 45 :   0.2167-0.4333 0.3333  plane waves:    2191
 k-point 46 :   0.2333-0.4667 0.3333  plane waves:    2191
 k-point 47 :   0.2500-0.5000 0.3333  plane waves:    2196
 k-point 48 :   0.2667-0.5333 0.3333  plane waves:    2186
 k-point 49 :   0.2833-0.5667 0.3333  plane waves:    2182
 k-point 50 :   0.3000-0.6000 0.3333  plane waves:    2162
 k-point 51 :   0.3167-0.6333 0.3333  plane waves:    2158
 k-point 52 :   0.3333 0.3333 0.3333  plane waves:    2157
 k-point 53 :   0.3500 0.3000 0.3333  plane waves:    2164
 k-point 54 :   0.3667 0.2667 0.3333  plane waves:    2170
 k-point 55 :   0.3833 0.2333 0.3333  plane waves:    2175
 k-point 56 :   0.4000 0.2000 0.3333  plane waves:    2181
 k-point 57 :   0.4167 0.1667 0.3333  plane waves:    2176
 k-point 58 :   0.4333 0.1333 0.3333  plane waves:    2182
 k-point 59 :   0.4500 0.1000 0.3333  plane waves:    2179
 k-point 60 :   0.4667 0.0667 0.3333  plane waves:    2176
 k-point 61 :   0.4833 0.0333 0.3333  plane waves:    2168
 k-point 62 :   0.5000 0.0000 0.3333  plane waves:    2162
 k-point 63 :   0.0500-0.0500 0.0000  plane waves:    2237
 k-point 64 :   0.0667-0.0833 0.0000  plane waves:    2237
 k-point 65 :   0.0833-0.1167 0.0000  plane waves:    2225
 k-point 66 :   0.1000-0.1500 0.0000  plane waves:    2217
 k-point 67 :   0.1167-0.1833 0.0000  plane waves:    2202
 k-point 68 :   0.1333-0.2167 0.0000  plane waves:    2191
 k-point 69 :   0.1500-0.2500 0.0000  plane waves:    2190
 k-point 70 :   0.1667-0.2833 0.0000  plane waves:    2181
 k-point 71 :   0.1833-0.3167 0.0000  plane waves:    2182
 k-point 72 :   0.2000-0.3500 0.0000  plane waves:    2180
 k-point 73 :   0.2167-0.3833 0.0000  plane waves:    2188
 k-point 74 :   0.2333-0.4167 0.0000  plane waves:    2192
 k-point 75 :   0.2500-0.4500 0.0000  plane waves:    2186
 k-point 76 :   0.2667-0.4833 0.0000  plane waves:    2182
 k-point 77 :   0.2833-0.5167 0.0000  plane waves:    2177
 k-point 78 :   0.3000-0.5500 0.0000  plane waves:    2173
 k-point 79 :   0.3167-0.5833 0.0000  plane waves:    2174
 k-point 80 :   0.3333-0.6167 0.0000  plane waves:    2172
 k-point 81 :  -0.6000 0.2500 0.0000  plane waves:    2178
 k-point 82 :  -0.5833 0.2167 0.0000  plane waves:    2186
 k-point 83 :  -0.5667 0.1833 0.0000  plane waves:    2180
 k-point 84 :  -0.5500 0.1500 0.0000  plane waves:    2186
 k-point 85 :  -0.5333 0.1167 0.0000  plane waves:    2182
 k-point 86 :  -0.5167 0.0833 0.0000  plane waves:    2178
 k-point 87 :  -0.5000 0.0500 0.0000  plane waves:    2168
 k-point 88 :  -0.4833 0.0167 0.0000  plane waves:    2169
 k-point 89 :   0.0500-0.0500 0.3333  plane waves:    2237
 k-point 90 :   0.0667-0.0833 0.3333  plane waves:    2235
 k-point 91 :   0.0833-0.1167 0.3333  plane waves:    2230
 k-point 92 :   0.1000-0.1500 0.3333  plane waves:    2222
 k-point 93 :   0.1167-0.1833 0.3333  plane waves:    2205
 k-point 94 :   0.1333-0.2167 0.3333  plane waves:    2195
 k-point 95 :   0.1500-0.2500 0.3333  plane waves:    2186
 k-point 96 :   0.1667-0.2833 0.3333  plane waves:    2183
 k-point 97 :   0.1833-0.3167 0.3333  plane waves:    2184
 k-point 98 :   0.2000-0.3500 0.3333  plane waves:    2180
 k-point 99 :   0.2167-0.3833 0.3333  plane waves:    2186
 k-point ** :   0.2333-0.4167 0.3333  plane waves:    2187
 k-point ** :   0.2500-0.4500 0.3333  plane waves:    2193
 k-point ** :   0.2667-0.4833 0.3333  plane waves:    2192
 k-point ** :   0.2833-0.5167 0.3333  plane waves:    2181
 k-point ** :   0.3000-0.5500 0.3333  plane waves:    2182
 k-point ** :   0.3167-0.5833 0.3333  plane waves:    2174
 k-point ** :   0.3333-0.6167 0.3333  plane waves:    2169
 k-point ** :  -0.6000 0.2500 0.3333  plane waves:    2170
 k-point ** :  -0.5833 0.2167 0.3333  plane waves:    2177
 k-point ** :  -0.5667 0.1833 0.3333  plane waves:    2180
 k-point ** :  -0.5500 0.1500 0.3333  plane waves:    2179
 k-point ** :  -0.5333 0.1167 0.3333  plane waves:    2179
 k-point ** :  -0.5167 0.0833 0.3333  plane waves:    2177
 k-point ** :  -0.5000 0.0500 0.3333  plane waves:    2172
 k-point ** :  -0.4833 0.0167 0.3333  plane waves:    2159
 k-point ** :   0.0500-0.0500-0.3333  plane waves:    2237
 k-point ** :   0.0667-0.0833-0.3333  plane waves:    2235
 k-point ** :   0.0833-0.1167-0.3333  plane waves:    2230
 k-point ** :   0.1000-0.1500-0.3333  plane waves:    2222
 k-point ** :   0.1167-0.1833-0.3333  plane waves:    2205
 k-point ** :   0.1333-0.2167-0.3333  plane waves:    2195
 k-point ** :   0.1500-0.2500-0.3333  plane waves:    2186
 k-point ** :   0.1667-0.2833-0.3333  plane waves:    2183
 k-point ** :   0.1833-0.3167-0.3333  plane waves:    2184
 k-point ** :   0.2000-0.3500-0.3333  plane waves:    2180
 k-point ** :   0.2167-0.3833-0.3333  plane waves:    2186
 k-point ** :   0.2333-0.4167-0.3333  plane waves:    2187
 k-point ** :   0.2500-0.4500-0.3333  plane waves:    2193
 k-point ** :   0.2667-0.4833-0.3333  plane waves:    2192
 k-point ** :   0.2833-0.5167-0.3333  plane waves:    2181
 k-point ** :   0.3000-0.5500-0.3333  plane waves:    2182
 k-point ** :   0.3167-0.5833-0.3333  plane waves:    2174
 k-point ** :   0.3333-0.6167-0.3333  plane waves:    2169
 k-point ** :  -0.6000 0.2500-0.3333  plane waves:    2170
 k-point ** :  -0.5833 0.2167-0.3333  plane waves:    2177
 k-point ** :  -0.5667 0.1833-0.3333  plane waves:    2180
 k-point ** :  -0.5500 0.1500-0.3333  plane waves:    2179
 k-point ** :  -0.5333 0.1167-0.3333  plane waves:    2179
 k-point ** :  -0.5167 0.0833-0.3333  plane waves:    2177
 k-point ** :  -0.5000 0.0500-0.3333  plane waves:    2172
 k-point ** :  -0.4833 0.0167-0.3333  plane waves:    2159
 k-point ** :   0.1000-0.1000 0.0000  plane waves:    2223
 k-point ** :   0.1167-0.1333 0.0000  plane waves:    2217
 k-point ** :   0.1333-0.1667 0.0000  plane waves:    2203
 k-point ** :   0.1500-0.2000 0.0000  plane waves:    2197
 k-point ** :   0.1667-0.2333 0.0000  plane waves:    2190
 k-point ** :   0.1833-0.2667 0.0000  plane waves:    2188
 k-point ** :   0.2000-0.3000 0.0000  plane waves:    2180
 k-point ** :   0.2167-0.3333 0.0000  plane waves:    2182
 k-point ** :   0.2333-0.3667 0.0000  plane waves:    2180
 k-point ** :   0.2500-0.4000 0.0000  plane waves:    2182
 k-point ** :   0.2667-0.4333 0.0000  plane waves:    2184
 k-point ** :   0.2833-0.4667 0.0000  plane waves:    2179
 k-point ** :   0.3000-0.5000 0.0000  plane waves:    2183
 k-point ** :   0.3167-0.5333 0.0000  plane waves:    2179
 k-point ** :   0.3333-0.5667 0.0000  plane waves:    2182
 k-point ** :  -0.5500 0.2000 0.0000  plane waves:    2182
 k-point ** :  -0.5333 0.1667 0.0000  plane waves:    2184
 k-point ** :  -0.5167 0.1333 0.0000  plane waves:    2178
 k-point ** :  -0.5000 0.1000 0.0000  plane waves:    2178
 k-point ** :  -0.4833 0.0667 0.0000  plane waves:    2170
 k-point ** :  -0.4667 0.0333 0.0000  plane waves:    2169
 k-point ** :  -0.4500 0.0000 0.0000  plane waves:    2172
 k-point ** :   0.1000-0.1000 0.3333  plane waves:    2231
 k-point ** :   0.1167-0.1333 0.3333  plane waves:    2226
 k-point ** :   0.1333-0.1667 0.3333  plane waves:    2214
 k-point ** :   0.1500-0.2000 0.3333  plane waves:    2195
 k-point ** :   0.1667-0.2333 0.3333  plane waves:    2193
 k-point ** :   0.1833-0.2667 0.3333  plane waves:    2184
 k-point ** :   0.2000-0.3000 0.3333  plane waves:    2180
 k-point ** :   0.2167-0.3333 0.3333  plane waves:    2180
 k-point ** :   0.2333-0.3667 0.3333  plane waves:    2180
 k-point ** :   0.2500-0.4000 0.3333  plane waves:    2183
 k-point ** :   0.2667-0.4333 0.3333  plane waves:    2184
 k-point ** :   0.2833-0.4667 0.3333  plane waves:    2189
 k-point ** :   0.3000-0.5000 0.3333  plane waves:    2184
 k-point ** :   0.3167-0.5333 0.3333  plane waves:    2180
 k-point ** :   0.3333-0.5667 0.3333  plane waves:    2177
 k-point ** :  -0.5500 0.2000 0.3333  plane waves:    2179
 k-point ** :  -0.5333 0.1667 0.3333  plane waves:    2176
 k-point ** :  -0.5167 0.1333 0.3333  plane waves:    2181
 k-point ** :  -0.5000 0.1000 0.3333  plane waves:    2181
 k-point ** :  -0.4833 0.0667 0.3333  plane waves:    2176
 k-point ** :  -0.4667 0.0333 0.3333  plane waves:    2166
 k-point ** :  -0.4500 0.0000 0.3333  plane waves:    2162
 k-point ** :   0.1000-0.1000-0.3333  plane waves:    2231
 k-point ** :   0.1167-0.1333-0.3333  plane waves:    2226
 k-point ** :   0.1333-0.1667-0.3333  plane waves:    2214
 k-point ** :   0.1500-0.2000-0.3333  plane waves:    2195
 k-point ** :   0.1667-0.2333-0.3333  plane waves:    2193
 k-point ** :   0.1833-0.2667-0.3333  plane waves:    2184
 k-point ** :   0.2000-0.3000-0.3333  plane waves:    2180
 k-point ** :   0.2167-0.3333-0.3333  plane waves:    2180
 k-point ** :   0.2333-0.3667-0.3333  plane waves:    2180
 k-point ** :   0.2500-0.4000-0.3333  plane waves:    2183
 k-point ** :   0.2667-0.4333-0.3333  plane waves:    2184
 k-point ** :   0.2833-0.4667-0.3333  plane waves:    2189
 k-point ** :   0.3000-0.5000-0.3333  plane waves:    2184
 k-point ** :   0.3167-0.5333-0.3333  plane waves:    2180
 k-point ** :   0.3333-0.5667-0.3333  plane waves:    2177
 k-point ** :  -0.5500 0.2000-0.3333  plane waves:    2179
 k-point ** :  -0.5333 0.1667-0.3333  plane waves:    2176
 k-point ** :  -0.5167 0.1333-0.3333  plane waves:    2181
 k-point ** :  -0.5000 0.1000-0.3333  plane waves:    2181
 k-point ** :  -0.4833 0.0667-0.3333  plane waves:    2176
 k-point ** :  -0.4667 0.0333-0.3333  plane waves:    2166
 k-point ** :  -0.4500 0.0000-0.3333  plane waves:    2162
 k-point ** :   0.1500-0.1500 0.0000  plane waves:    2211
 k-point ** :   0.1667-0.1833 0.0000  plane waves:    2199
 k-point ** :   0.1833-0.2167 0.0000  plane waves:    2196
 k-point ** :   0.2000-0.2500 0.0000  plane waves:    2192
 k-point ** :   0.2167-0.2833 0.0000  plane waves:    2191
 k-point ** :   0.2333-0.3167 0.0000  plane waves:    2179
 k-point ** :   0.2500-0.3500 0.0000  plane waves:    2170
 k-point ** :   0.2667-0.3833 0.0000  plane waves:    2175
 k-point ** :   0.2833-0.4167 0.0000  plane waves:    2179
 k-point ** :   0.3000-0.4500 0.0000  plane waves:    2179
 k-point ** :   0.3167-0.4833 0.0000  plane waves:    2183
 k-point ** :   0.3333-0.5167 0.0000  plane waves:    2180
 k-point ** :  -0.5000 0.1500 0.0000  plane waves:    2180
 k-point ** :  -0.4833 0.1167 0.0000  plane waves:    2180
 k-point ** :  -0.4667 0.0833 0.0000  plane waves:    2170
 k-point ** :  -0.4500 0.0500 0.0000  plane waves:    2161
 k-point ** :  -0.4333 0.0167 0.0000  plane waves:    2168
 k-point ** :   0.1500-0.1500 0.3333  plane waves:    2218
 k-point ** :   0.1667-0.1833 0.3333  plane waves:    2197
 k-point ** :   0.1833-0.2167 0.3333  plane waves:    2189
 k-point ** :   0.2000-0.2500 0.3333  plane waves:    2186
 k-point ** :   0.2167-0.2833 0.3333  plane waves:    2184
 k-point ** :   0.2333-0.3167 0.3333  plane waves:    2181
 k-point ** :   0.2500-0.3500 0.3333  plane waves:    2170
 k-point ** :   0.2667-0.3833 0.3333  plane waves:    2178
 k-point ** :   0.2833-0.4167 0.3333  plane waves:    2179
 k-point ** :   0.3000-0.4500 0.3333  plane waves:    2188
 k-point ** :   0.3167-0.4833 0.3333  plane waves:    2184
 k-point ** :   0.3333-0.5167 0.3333  plane waves:    2183
 k-point ** :  -0.5000 0.1500 0.3333  plane waves:    2176
 k-point ** :  -0.4833 0.1167 0.3333  plane waves:    2176
 k-point ** :  -0.4667 0.0833 0.3333  plane waves:    2173
 k-point ** :  -0.4500 0.0500 0.3333  plane waves:    2171
 k-point ** :  -0.4333 0.0167 0.3333  plane waves:    2167
 k-point ** :   0.1500-0.1500-0.3333  plane waves:    2218
 k-point ** :   0.1667-0.1833-0.3333  plane waves:    2197
 k-point ** :   0.1833-0.2167-0.3333  plane waves:    2189
 k-point ** :   0.2000-0.2500-0.3333  plane waves:    2186
 k-point ** :   0.2167-0.2833-0.3333  plane waves:    2184
 k-point ** :   0.2333-0.3167-0.3333  plane waves:    2181
 k-point ** :   0.2500-0.3500-0.3333  plane waves:    2170
 k-point ** :   0.2667-0.3833-0.3333  plane waves:    2178
 k-point ** :   0.2833-0.4167-0.3333  plane waves:    2179
 k-point ** :   0.3000-0.4500-0.3333  plane waves:    2188
 k-point ** :   0.3167-0.4833-0.3333  plane waves:    2184
 k-point ** :   0.3333-0.5167-0.3333  plane waves:    2183
 k-point ** :  -0.5000 0.1500-0.3333  plane waves:    2176
 k-point ** :  -0.4833 0.1167-0.3333  plane waves:    2176
 k-point ** :  -0.4667 0.0833-0.3333  plane waves:    2173
 k-point ** :  -0.4500 0.0500-0.3333  plane waves:    2171
 k-point ** :  -0.4333 0.0167-0.3333  plane waves:    2167
 k-point ** :   0.2000-0.2000 0.0000  plane waves:    2201
 k-point ** :   0.2167-0.2333 0.0000  plane waves:    2186
 k-point ** :   0.2333-0.2667 0.0000  plane waves:    2188
 k-point ** :   0.2500-0.3000 0.0000  plane waves:    2184
 k-point ** :   0.2667-0.3333 0.0000  plane waves:    2174
 k-point ** :   0.2833-0.3667 0.0000  plane waves:    2168
 k-point ** :   0.3000-0.4000 0.0000  plane waves:    2171
 k-point ** :   0.3167-0.4333 0.0000  plane waves:    2173
 k-point ** :   0.3333-0.4667 0.0000  plane waves:    2182
 k-point ** :  -0.4500 0.1000 0.0000  plane waves:    2178
 k-point ** :  -0.4333 0.0667 0.0000  plane waves:    2167
 k-point ** :  -0.4167 0.0333 0.0000  plane waves:    2163
 k-point ** :  -0.4000 0.0000 0.0000  plane waves:    2166
 k-point ** :   0.2000-0.2000 0.3333  plane waves:    2188
 k-point ** :   0.2167-0.2333 0.3333  plane waves:    2184
 k-point ** :   0.2333-0.2667 0.3333  plane waves:    2183
 k-point ** :   0.2500-0.3000 0.3333  plane waves:    2187
 k-point ** :   0.2667-0.3333 0.3333  plane waves:    2177
 k-point ** :   0.2833-0.3667 0.3333  plane waves:    2174
 k-point ** :   0.3000-0.4000 0.3333  plane waves:    2173
 k-point ** :   0.3167-0.4333 0.3333  plane waves:    2180
 k-point ** :   0.3333-0.4667 0.3333  plane waves:    2175
 k-point ** :  -0.4500 0.1000 0.3333  plane waves:    2171
 k-point ** :  -0.4333 0.0667 0.3333  plane waves:    2165
 k-point ** :  -0.4167 0.0333 0.3333  plane waves:    2166
 k-point ** :  -0.4000 0.0000 0.3333  plane waves:    2172
 k-point ** :   0.2000-0.2000-0.3333  plane waves:    2188
 k-point ** :   0.2167-0.2333-0.3333  plane waves:    2184
 k-point ** :   0.2333-0.2667-0.3333  plane waves:    2183
 k-point ** :   0.2500-0.3000-0.3333  plane waves:    2187
 k-point ** :   0.2667-0.3333-0.3333  plane waves:    2177
 k-point ** :   0.2833-0.3667-0.3333  plane waves:    2174
 k-point ** :   0.3000-0.4000-0.3333  plane waves:    2173
 k-point ** :   0.3167-0.4333-0.3333  plane waves:    2180
 k-point ** :   0.3333-0.4667-0.3333  plane waves:    2175
 k-point ** :  -0.4500 0.1000-0.3333  plane waves:    2171
 k-point ** :  -0.4333 0.0667-0.3333  plane waves:    2165
 k-point ** :  -0.4167 0.0333-0.3333  plane waves:    2166
 k-point ** :  -0.4000 0.0000-0.3333  plane waves:    2172
 k-point ** :   0.2500-0.2500 0.0000  plane waves:    2188
 k-point ** :   0.2667-0.2833 0.0000  plane waves:    2190
 k-point ** :   0.2833-0.3167 0.0000  plane waves:    2180
 k-point ** :   0.3000-0.3500 0.0000  plane waves:    2173
 k-point ** :   0.3167-0.3833 0.0000  plane waves:    2166
 k-point ** :   0.3333-0.4167 0.0000  plane waves:    2163
 k-point ** :  -0.4000 0.0500 0.0000  plane waves:    2167
 k-point ** :  -0.3833 0.0167 0.0000  plane waves:    2168
 k-point ** :   0.2500-0.2500 0.3333  plane waves:    2178
 k-point ** :   0.2667-0.2833 0.3333  plane waves:    2181
 k-point ** :   0.2833-0.3167 0.3333  plane waves:    2182
 k-point ** :   0.3000-0.3500 0.3333  plane waves:    2173
 k-point ** :   0.3167-0.3833 0.3333  plane waves:    2170
 k-point ** :   0.3333-0.4167 0.3333  plane waves:    2170
 k-point ** :  -0.4000 0.0500 0.3333  plane waves:    2164
 k-point ** :  -0.3833 0.0167 0.3333  plane waves:    2171
 k-point ** :   0.2500-0.2500-0.3333  plane waves:    2178
 k-point ** :   0.2667-0.2833-0.3333  plane waves:    2181
 k-point ** :   0.2833-0.3167-0.3333  plane waves:    2182
 k-point ** :   0.3000-0.3500-0.3333  plane waves:    2173
 k-point ** :   0.3167-0.3833-0.3333  plane waves:    2170
 k-point ** :   0.3333-0.4167-0.3333  plane waves:    2170
 k-point ** :  -0.4000 0.0500-0.3333  plane waves:    2164
 k-point ** :  -0.3833 0.0167-0.3333  plane waves:    2171
 k-point ** :   0.3000-0.3000 0.0000  plane waves:    2192
 k-point ** :   0.3167-0.3333 0.0000  plane waves:    2174
 k-point ** :   0.3333-0.3667 0.0000  plane waves:    2169
 k-point ** :  -0.3500 0.0000 0.0000  plane waves:    2170
 k-point ** :   0.3000-0.3000 0.3333  plane waves:    2182
 k-point ** :   0.3167-0.3333 0.3333  plane waves:    2182
 k-point ** :   0.3333-0.3667 0.3333  plane waves:    2172
 k-point ** :  -0.3500 0.0000 0.3333  plane waves:    2171
 k-point ** :   0.3000-0.3000-0.3333  plane waves:    2182
 k-point ** :   0.3167-0.3333-0.3333  plane waves:    2182
 k-point ** :   0.3333-0.3667-0.3333  plane waves:    2172
 k-point ** :  -0.3500 0.0000-0.3333  plane waves:    2171

 maximum and minimum number of plane-waves per node :      2253     2156

 maximum number of plane-waves:      2253
 maximum index in each direction: 
   IXMAX=    4   IYMAX=    4   IZMAX=   32
   IXMIN=   -4   IYMIN=   -4   IZMIN=  -32


 serial   3D FFT for wavefunctions
 parallel 3D FFT for charge:
    minimum data exchange during FFTs selected (reduces bandwidth)


 total amount of memory used by VASP MPI-rank0   538295. kBytes
=======================================================================

   base      :      30000. kBytes
   nonl-proj :     216034. kBytes
   fftplans  :       2978. kBytes
   grid      :       6334. kBytes
   one-center:        139. kBytes
   wavefun   :     282810. kBytes
 
     INWAV:  cpu time    0.0001: real time    0.0001
 Broyden mixing: mesh for mixing (old mesh)
   NGX =  9   NGY =  9   NGZ = 63
  (NGX  = 36   NGY  = 36   NGZ  =256)
  gives a total of   5103 points

 initial charge density was supplied:
 charge density of overlapping atoms calculated
 number of electron     145.0000000 magnetization 
 keeping initial charge density in first step


--------------------------------------------------------------------------------------------------------


 Maximum index for augmentation-charges         2545 (set IRDMAX)


--------------------------------------------------------------------------------------------------------


 First call to EWALD:  gamma=   0.345
 Maximum number of real-space cells 5x 5x 1
 Maximum number of reciprocal cells 2x 2x 9

    FEWALD:  cpu time    0.0056: real time    0.0056


--------------------------------------- Iteration      1(   1)  ---------------------------------------


    POTLOK:  cpu time    0.1146: real time    0.1422
    SETDIJ:  cpu time    0.0319: real time    0.0319
     EDDAV:  cpu time  160.0016: real time  159.9992
       DOS:  cpu time    0.0568: real time    0.0568
    --------------------------------------------
      LOOP:  cpu time  160.2049: real time  160.2303

 eigenvalue-minimisations  : 67168
 total energy-change (2. order) : 0.1770933E+04  (-0.8030054E+04)
 number of electron     145.0000000 magnetization 
 augmentation part      145.0000000 magnetization 

 Free energy of the ion-electron system (eV)
  ---------------------------------------------------
  alpha Z        PSCENC =      1401.74017612
  Ewald energy   TEWEN  =    -19680.02412815
  -Hartree energ DENC   =     -4595.61487174
  -exchange      EXHF   =         0.00000000
  -V(xc)+E(xc)   XCENC  =       618.87942685
  PAW double counting   =     20005.89735317   -19876.01545837
  entropy T*S    EENTRO =        -0.00003017
  eigenvalues    EBANDS =       350.98506474
  atomic energy  EATOM  =     23545.08561592
  Solvation  Ediel_sol  =         0.00000000
  ---------------------------------------------------
  free energy    TOTEN  =      1770.93314839 eV

  energy without entropy =     1770.93317855  energy(sigma->0) =     1770.93315593


--------------------------------------------------------------------------------------------------------




--------------------------------------- Iteration      1(   2)  ---------------------------------------


     EDDAV:  cpu time  154.7471: real time  154.7448
       DOS:  cpu time    0.0514: real time    0.0514
    --------------------------------------------
      LOOP:  cpu time  154.7985: real time  154.7962

 eigenvalue-minimisations  : 64208
 total energy-change (2. order) :-0.1732806E+04  (-0.1650636E+04)
 number of electron     145.0000000 magnetization 
 augmentation part      145.0000000 magnetization 

 Free energy of the ion-electron system (eV)
  ---------------------------------------------------
  alpha Z        PSCENC =      1401.74017612
[...]
  band No.  band energies     occupation 
      1     -58.1421      2.00000
      2     -58.1342      2.00000
      3     -58.1165      2.00000
      4     -41.6191      2.00000
      5     -41.6060      2.00000
      6     -41.5859      2.00000
      7     -41.5703      2.00000
      8     -41.5265      2.00000
      9     -41.4847      2.00000
     10     -41.4582      2.00000
     11     -41.4560      2.00000
     12     -41.4351      2.00000
     13     -41.4054      2.00000
     14     -41.3786      2.00000
     15     -41.3708      2.00000
     16     -41.3662      2.00000
     17     -41.3242      2.00000
     18     -41.3137      2.00000
     19     -41.2821      2.00000
     20     -41.2764      2.00000
     21     -41.2692      2.00000
     22     -41.2549      2.00000
     23     -41.2547      2.00000
     24     -41.1983      2.00000
     25     -41.1981      2.00000
     26     -41.1376      2.00000
     27     -41.1375      2.00000
     28       3.7477      2.00000
     29       3.9674      2.00000
     30       4.2583      2.00000
     31       4.4789      2.00000
     32       4.7039      2.00000
     33       4.9204      2.00000
     34       5.1100      2.00000
     35       5.2012      2.00000
     36       5.3892      2.00000
     37       5.5343      2.00000
     38       5.7566      2.00000
     39       6.1569      2.00000
     40       6.3667      2.00000
     41       6.7718      2.00000
     42       6.9958      2.00000
     43       7.3207      2.00000
     44       7.3349      2.00000
     45       7.6246      2.00000
     46       7.6689      2.00000
     47       7.7379      2.00000
     48       7.7647      2.00000
     49       7.9422      2.00000
     50       7.9537      2.00000
     51       8.0273      2.00000
     52       8.3230      2.00000
     53       8.3735      2.00000
     54       8.5201      2.00000
     55       8.8018      2.00000
     56       8.8583      2.00000
     57       8.9002      2.00000
     58       9.0574      2.00000
     59       9.2460      2.00000
     60       9.5436      2.00000
     61       9.7067      2.00000
     62       9.8765      2.00000
     63       9.8871      2.00000
     64      10.0320      2.00000
     65      10.0703      2.00000
     66      10.0976      2.00000
     67      10.2098      2.00000
     68      10.2977      2.00000
     69      10.3740      2.00000
     70      10.5349      2.00000
     71      10.6582      2.00000
     72      10.6696      2.00000
     73      10.7552      2.00000
     74      10.8317      2.00000
     75      11.1201      2.00000
     76      11.4105      0.00000
     77      11.5087      0.00000
     78      12.3763      0.00000
     79      14.2423      0.00000
     80      14.6208      0.00000
     81      16.1495      0.00000
     82      18.3034      0.00000
     83      19.0890      0.00000
     84      19.2750      0.00000
     85      20.3028      0.00000
     86      21.1406      0.00000
     87      21.3488      0.00000
     88      22.5213      0.00000

 k-point   331 :       0.3333   -0.3667   -0.3333
  band No.  band energies     occupation 
      1     -58.1417      2.00000
      2     -58.1362      2.00000
      3     -58.1166      2.00000
      4     -41.6327      2.00000
      5     -41.6228      2.00000
      6     -41.6055      2.00000
      7     -41.5778      2.00000
      8     -41.5384      2.00000
      9     -41.5007      2.00000
     10     -41.4805      2.00000
     11     -41.4783      2.00000
     12     -41.4499      2.00000
     13     -41.4130      2.00000
     14     -41.3861      2.00000
     15     -41.3783      2.00000
     16     -41.3700      2.00000
     17     -41.3327      2.00000
     18     -41.3166      2.00000
     19     -41.2890      2.00000
     20     -41.2771      2.00000
     21     -41.2713      2.00000
     22     -41.2621      2.00000
     23     -41.2616      2.00000
     24     -41.2052      2.00000
     25     -41.2051      2.00000
     26     -41.1397      2.00000
     27     -41.1394      2.00000
     28       3.8975      2.00000
     29       4.1177      2.00000
     30       4.4407      2.00000
     31       4.4974      2.00000
     32       4.6622      2.00000
     33       4.8909      2.00000
     34       5.0677      2.00000
     35       5.1056      2.00000
     36       5.2969      2.00000
     37       5.4534      2.00000
     38       5.6384      2.00000
     39       6.1447      2.00000
     40       6.2970      2.00000
     41       6.7207      2.00000
     42       7.0761      2.00000
     43       7.2995      2.00000
     44       7.5209      2.00000
     45       7.5638      2.00000
     46       7.6087      2.00000
     47       7.7011      2.00000
     48       7.8949      2.00000
     49       7.9834      2.00000
     50       8.1202      2.00000
     51       8.1866      2.00000
     52       8.3428      2.00000
     53       8.5387      2.00000
     54       8.5536      2.00000
     55       8.8872      2.00000
     56       8.9495      2.00000
     57       9.0648      2.00000
     58       9.0771      2.00000
     59       9.5871      2.00000
     60       9.6457      2.00000
     61       9.8317      2.00000
     62      10.0576      2.00000
     63      10.0772      2.00000
     64      10.2816      2.00000
     65      10.3427      2.00000
     66      10.3728      2.00000
     67      10.4929      2.00000
     68      10.5891      2.00000
     69      10.6861      2.00000
     70      10.7650      2.00000
     71      10.8292      2.00000
     72      10.9020      2.00000
     73      11.0012      2.00000
     74      11.0707      2.00000
     75      11.0923      2.00000
     76      11.4341      0.00000
     77      11.7345      0.00000
     78      12.5808      0.00000
     79      14.5525      0.00000
     80      14.8442      0.00000
     81      16.4201      0.00000
     82      18.0220      0.00000
     83      18.9030      0.00000
     84      19.1498      0.00000
     85      19.4501      0.00000
     86      20.4082      0.00000
     87      20.7311      0.00000
     88      21.8846      0.00000

 k-point   332 :      -0.3500    0.0000   -0.3333
  band No.  band energies     occupation 
      1     -58.1418      2.00000
      2     -58.1356      2.00000
      3     -58.1168      2.00000
      4     -41.6334      2.00000
      5     -41.6234      2.00000
      6     -41.6061      2.00000
      7     -41.5780      2.00000
      8     -41.5384      2.00000
      9     -41.5011      2.00000
     10     -41.4806      2.00000
     11     -41.4784      2.00000
     12     -41.4498      2.00000
     13     -41.4121      2.00000
     14     -41.3850      2.00000
     15     -41.3768      2.00000
     16     -41.3701      2.00000
     17     -41.3293      2.00000
     18     -41.3176      2.00000
     19     -41.2863      2.00000
     20     -41.2766      2.00000
     21     -41.2706      2.00000
     22     -41.2610      2.00000
     23     -41.2607      2.00000
     24     -41.2032      2.00000
     25     -41.2027      2.00000
     26     -41.1398      2.00000
     27     -41.1396      2.00000
     28       3.8682      2.00000
     29       4.0889      2.00000
     30       4.4121      2.00000
     31       4.4721      2.00000
     32       4.6351      2.00000
     33       4.8641      2.00000
     34       5.0484      2.00000
     35       5.0818      2.00000
     36       5.2800      2.00000
     37       5.4227      2.00000
     38       5.6293      2.00000
     39       6.1417      2.00000
     40       6.3029      2.00000
     41       6.7414      2.00000
     42       7.0934      2.00000
     43       7.3143      2.00000
     44       7.5592      2.00000
     45       7.5773      2.00000
     46       7.6081      2.00000
     47       7.7020      2.00000
     48       7.9395      2.00000
     49       7.9703      2.00000
     50       8.1610      2.00000
     51       8.2489      2.00000
     52       8.3174      2.00000
     53       8.5607      2.00000
     54       8.6165      2.00000
     55       8.9033      2.00000
     56       8.9674      2.00000
     57       9.0474      2.00000
     58       9.1474      2.00000
     59       9.6531      2.00000
     60       9.7215      2.00000
     61       9.7836      2.00000
     62      10.0328      2.00000
     63      10.1514      2.00000
     64      10.3236      2.00000
     65      10.4135      2.00000
     66      10.4421      2.00000
     67      10.4992      2.00000
     68      10.5252      2.00000
     69      10.6187      2.00000
     70      10.7367      2.00000
     71      10.7858      2.00000
     72      10.7908      2.00000
     73      10.8792      2.00000
     74      10.9396      2.00000
     75      11.1962      2.00000
     76      11.4769      0.00000
     77      11.5340      0.00000
     78      12.5646      0.00000
     79      14.5206      0.00000
     80      14.8022      0.00000
     81      16.3778      0.00000
     82      18.0058      0.00000
     83      18.8927      0.00000
     84      19.1102      0.00000
     85      19.4558      0.00000
     86      20.4038      0.00000
     87      20.7395      0.00000
     88      21.8707      0.00000


--------------------------------------------------------------------------------------------------------


 soft charge-density along one line, spin component           1
         0         1         2         3         4         5         6         7         8         9
 total charge-density along one line
 
 pseudopotential strength for first ion, spin component:           1
-63.874   0.000  -0.000   7.333  -0.001   0.001   0.000  -0.000
  0.000 -63.874   0.000  -0.001   7.333  -0.001  -0.000   0.000
 -0.000   0.000 -63.874   0.001  -0.001   7.333   0.000  -0.000
  7.333  -0.001   0.001   6.119  -0.001   0.001  -0.000   0.000
 -0.001   7.333  -0.001  -0.001   6.119  -0.001   0.000  -0.000
  0.001  -0.001   7.333   0.001  -0.001   6.119  -0.000   0.000
  0.000  -0.000   0.000  -0.000   0.000  -0.000  -3.270  -0.002
 -0.000   0.000  -0.000   0.000  -0.000   0.000  -0.002  -3.270
 -0.000  -0.000  -0.000   0.000   0.000   0.000   0.005   0.002
 -0.000   0.000  -0.000   0.000  -0.000   0.000  -0.002   0.002
 -0.000  -0.000   0.000   0.000   0.000  -0.000   0.000  -0.004
  0.000  -0.000   0.000  -0.000   0.000  -0.000  -3.904  -0.002
 -0.000   0.000  -0.000   0.000  -0.000   0.000  -0.002  -3.904
 -0.000  -0.000  -0.000   0.000   0.000   0.000   0.005   0.002
 -0.000   0.000  -0.000   0.000  -0.000   0.000  -0.002   0.002
 -0.000  -0.000   0.000   0.000   0.000  -0.000   0.000  -0.004
 -0.000   0.000  -0.000  -0.000   0.000  -0.000   0.001  -0.001
 -0.000   0.000  -0.000  -0.000   0.000  -0.000   0.001  -0.001
 total augmentation occupancy for first ion, spin component:           1
  1.999  -0.000   0.000  -0.010   0.000  -0.000   0.000   0.000   0.000   0.000   0.000   0.000   0.000   0.000   0.000   0.000
 -0.000   1.999  -0.000   0.000  -0.010   0.000   0.000   0.000   0.000   0.000   0.000   0.000   0.000   0.000   0.000   0.000
  0.000  -0.000   1.999  -0.000   0.000  -0.010   0.000   0.000   0.000   0.000   0.000   0.000   0.000   0.000   0.000   0.000
 -0.010   0.000  -0.000   0.088  -0.008   0.008   0.000   0.000   0.000   0.000   0.000   0.000   0.000   0.000   0.000   0.000
  0.000  -0.010   0.000  -0.008   0.088  -0.008   0.000   0.000   0.000   0.000   0.000   0.000   0.000   0.000   0.000   0.000
 -0.000   0.000  -0.010   0.008  -0.008   0.088   0.000   0.000   0.000   0.000   0.000   0.000   0.000   0.000   0.000   0.000
  0.000   0.000   0.000   0.000   0.000   0.000   3.799  -0.096  -0.070  -0.096   0.000  -1.463   0.068   0.110   0.068  -0.000
  0.000   0.000   0.000   0.000   0.000   0.000  -0.096   3.799  -0.035   0.096   0.061   0.068  -1.463   0.055  -0.068  -0.095
  0.000   0.000   0.000   0.000   0.000   0.000  -0.070  -0.035   3.870  -0.035   0.000   0.110   0.055  -1.393   0.055  -0.000
  0.000   0.000   0.000   0.000   0.000   0.000  -0.096   0.096  -0.035   3.799  -0.061   0.068  -0.068   0.055  -1.463   0.095
  0.000   0.000   0.000   0.000   0.000   0.000   0.000   0.061   0.000  -0.061   3.870  -0.000  -0.095  -0.000   0.095  -1.393
  0.000   0.000   0.000   0.000   0.000   0.000  -1.463   0.068   0.110   0.068  -0.000   1.066  -0.050  -0.132  -0.050   0.000
  0.000   0.000   0.000   0.000   0.000   0.000   0.068  -1.463   0.055  -0.068  -0.095  -0.050   1.066  -0.066   0.050   0.115
  0.000   0.000   0.000   0.000   0.000   0.000   0.110   0.055  -1.393   0.055  -0.000  -0.132  -0.066   0.898  -0.066   0.000
  0.000   0.000   0.000   0.000   0.000   0.000   0.068  -0.068   0.055  -1.463   0.095  -0.050   0.050  -0.066   1.066  -0.115
  0.000   0.000   0.000   0.000   0.000   0.000  -0.000  -0.095  -0.000   0.095  -1.393   0.000   0.115   0.000  -0.115   0.898
  0.000   0.000   0.000   0.000   0.000   0.000  -0.181   0.181   0.000   0.181   0.000   0.134  -0.134   0.000  -0.134  -0.000
  0.000   0.000   0.000   0.000   0.000   0.000   0.013  -0.013   0.000  -0.013   0.000  -0.008   0.008   0.000   0.008   0.000


------------------------ aborting loop because EDIFF is reached ----------------------------------------


    CHARGE:  cpu time   12.3993: real time   12.3992
    FORLOC:  cpu time    0.0190: real time    0.0189
    FORNL :  cpu time   54.8715: real time   54.8707
    STRESS:  cpu time   35.0983: real time   35.0979
    FORCOR:  cpu time    0.1179: real time    0.1180
    FORHAR:  cpu time    0.0328: real time    0.0328
    MIXING:  cpu time    0.0081: real time    0.0081
    OFIELD:  cpu time    0.0001: real time    0.0001

  FORCE on cell =-STRESS in cart. coord.  units (eV):
  Direction    XX          YY          ZZ          XY          YZ          ZX
  --------------------------------------------------------------------------------------
  Alpha Z  1401.74018  1401.74018  1401.74018
  Ewald   -6560.00360 -6560.00360 -6560.00360   -13.57731    13.57731    13.57731
  Hartree  1468.24401  1468.24401  1468.24401   -22.74197    22.74197    22.74197
  E(xc)    -818.50691  -818.50642  -818.50691    -0.06402     0.06402     0.06351
  Local    1058.18438  1058.18502  1058.18438    30.80627   -30.80627   -30.80691
  n-local  -323.36755  -335.99136  -327.97520     3.97564    -7.58397    11.31537
  augment   770.99731   770.99290   770.99731     0.72832    -0.72833    -0.72362
  Kinetic  3011.51808  2989.45602  3003.19166    16.97415   -10.68937    17.61203
  Fock        0.00000     0.00000     0.00000     0.00000     0.00000     0.00000
  -------------------------------------------------------------------------------------
  Total      -7.06851    -7.06851    -7.06851    -1.41675     1.41675     1.41675
  in kB     -83.82263   -83.82263   -83.82263   -16.80061    16.80061    16.80061
  external pressure =      -83.82 kB  Pullay stress =        0.00 kB


 VOLUME and BASIS-vectors are now :
 -----------------------------------------------------------------------------
  energy-cutoff  :      370.00
  volume of cell :      135.11
      direct lattice vectors                 reciprocal lattice vectors
     0.000000000  1.957950000  1.957950000     0.170246091  0.170246091  0.340492181
     1.957950000 -1.957950000  0.000000000     0.340492181 -0.170246091  0.170246091
    11.747700000 11.747700000-11.747700000     0.028374348  0.028374348 -0.028374348

  length of vectors
     2.768959444  2.768959444 20.347613272     0.417016053  0.417016053  0.049145813


 FORCES acting on ions
    electron-ion (+dipol)            ewald-force                    non-local-force                 convergence-correction
 -----------------------------------------------------------------------------------------------
   0.625E-13 -.285E-12 0.190E-12   0.227E-12 0.000E+00 0.455E-12   0.948E-23 0.161E-22 0.376E-23   -.244E-11 -.417E-11 0.503E-11
   -.108E+03 -.108E+03 0.108E+03   0.969E+02 0.969E+02 -.969E+02   0.238E+00 0.238E+00 -.238E+00   0.106E+02 0.106E+02 -.106E+02
   -.882E+02 -.882E+02 0.882E+02   0.699E+02 0.699E+02 -.699E+02   0.425E-01 0.425E-01 -.425E-01   0.184E+02 0.184E+02 -.184E+02
   -.580E+02 -.580E+02 0.580E+02   0.420E+02 0.420E+02 -.420E+02   0.101E+00 0.101E+00 -.101E+00   0.160E+02 0.160E+02 -.160E+02
   -.189E+02 -.189E+02 0.189E+02   0.140E+02 0.140E+02 -.140E+02   0.257E-01 0.257E-01 -.257E-01   0.487E+01 0.487E+01 -.487E+01
   0.189E+02 0.189E+02 -.189E+02   -.140E+02 -.140E+02 0.140E+02   -.257E-01 -.257E-01 0.257E-01   -.487E+01 -.487E+01 0.487E+01
   0.580E+02 0.580E+02 -.580E+02   -.420E+02 -.420E+02 0.420E+02   -.101E+00 -.101E+00 0.101E+00   -.160E+02 -.160E+02 0.160E+02
   0.882E+02 0.882E+02 -.882E+02   -.699E+02 -.699E+02 0.699E+02   -.425E-01 -.425E-01 0.425E-01   -.184E+02 -.184E+02 0.184E+02
   0.108E+03 0.108E+03 -.108E+03   -.969E+02 -.969E+02 0.969E+02   -.238E+00 -.238E+00 0.238E+00   -.106E+02 -.106E+02 0.106E+02
 -----------------------------------------------------------------------------------------------
   -.233E-10 -.194E-10 0.211E-10   0.227E-12 0.909E-12 -.142E-13   0.000E+00 0.278E-16 0.278E-16   0.214E-11 -.485E-11 0.495E-11
 
 
 POSITION                                       TOTAL-FORCE (eV/Angst)
 -----------------------------------------------------------------------------------
      0.00000      0.00000      0.00000         0.000000      0.000000     -0.000000
      1.95795      1.95795     -0.00000        -0.731099     -0.731099      0.731099
      3.91590      1.95795     -1.95795         0.087618      0.087618     -0.087618
      3.91590      3.91590     -3.91590         0.037123      0.037123     -0.037123
      5.87385      5.87385     -3.91590        -0.004386     -0.004386      0.004386
      7.83180      5.87385     -5.87385         0.004386      0.004386     -0.004386
      7.83180      7.83180     -7.83180        -0.037123     -0.037123      0.037123
      9.78975      9.78975     -7.83180        -0.087618     -0.087618      0.087618
     11.74770      9.78975     -9.78975         0.731099      0.731099     -0.731099
 -----------------------------------------------------------------------------------
    total drift:                               -0.000000     -0.000000      0.000000


--------------------------------------------------------------------------------------------------------



  FREE ENERGIE OF THE ION-ELECTRON SYSTEM (eV)
  ---------------------------------------------------
  free  energy   TOTEN  =       -52.46196776 eV

  energy  without entropy=      -52.46193847  energy(sigma->0) =      -52.46196044
 


--------------------------------------------------------------------------------------------------------


    POTLOK:  cpu time    0.1362: real time    0.1362


--------------------------------------------------------------------------------------------------------


 writing wavefunctions
     LOOP+:  cpu time 4430.0268: real time 4430.0974
    4ORBIT:  cpu time    0.0000: real time    0.0000

 total amount of memory used by VASP MPI-rank0   538295. kBytes
=======================================================================

   base      :      30000. kBytes
   nonl-proj :     216034. kBytes
   fftplans  :       2978. kBytes
   grid      :       6334. kBytes
   one-center:        139. kBytes
   wavefun   :     282810. kBytes
 
  
  
 General timing and accounting informations for this job:
 ========================================================
  
                  Total CPU time used (sec):     4454.766
                            User time (sec):     4425.275
                          System time (sec):       29.491
                         Elapsed time (sec):     4454.912
  
                   Maximum memory used (kb):      583164.
                   Average memory used (kb):           0.
  
                          Minor page faults:       197057
                          Major page faults:            0
                 Voluntary context switches:          153
