 vasp.5.4.4.18Apr17-6-g9f103f2a35 (build Nov 06 2019 09:29:44) complex          
  
 executed on             LinuxIFC date 2023.01.14  02:34:51
 running on    5 total cores
 distrk:  each k-point on    5 cores,    1 groups
 distr:  one band on NCORES_PER_BAND=   1 cores,    5 groups


--------------------------------------------------------------------------------------------------------


 INCAR:
 POTCAR:    PAW_PBE Cu_pv 06Sep2000               
 POTCAR:    PAW_PBE Pt_pv 12Dec2005               

 ----------------------------------------------------------------------------- 
|                                                                             |
|           W    W    AA    RRRRR   N    N  II  N    N   GGGG   !!!           |
|           W    W   A  A   R    R  NN   N  II  NN   N  G    G  !!!           |
|           W    W  A    A  R    R  N N  N  II  N N  N  G       !!!           |
|           W WW W  AAAAAA  RRRRR   N  N N  II  N  N N  G  GGG   !            |
|           WW  WW  A    A  R   R   N   NN  II  N   NN  G    G                |
|           W    W  A    A  R    R  N    N  II  N    N   GGGG   !!!           |
|                                                                             |
|      For optimal performance we recommend to set                            |
|        NCORE= 4 - approx SQRT( number of cores)                             |
|      NCORE specifies how many cores store one orbital (NPAR=cpu/NCORE).     |
|      This setting can  greatly improve the performance of VASP for DFT.     |
|      The default,   NCORE=1            might be grossly inefficient         |
|      on modern multi-core architectures or massively parallel machines.     |
|      Do your own testing !!!!                                               |
|      Unfortunately you need to use the default for GW and RPA calculations. |
|      (for HF NCORE is supported but not extensively tested yet)             |
|                                                                             |
 ----------------------------------------------------------------------------- 

 POTCAR:    PAW_PBE Cu_pv 06Sep2000               
   VRHFIN =Cu: d10 p1                                                           
   LEXCH  = PE                                                                  
   EATOM  =  4120.1201 eV,  302.8203 Ry                                         
                                                                                
   TITEL  = PAW_PBE Cu_pv 06Sep2000                                             
   LULTRA =        F    use ultrasoft PP ?                                      
   IUNSCR =        1    unscreen: 0-lin 1-nonlin 2-no                           
   RPACOR =    1.500    partial core radius                                     
   POMASS =   63.546; ZVAL   =   17.000    mass and valenz                      
   RCORE  =    2.000    outmost cutoff radius                                   
   RWIGS  =    2.000; RWIGS  =    1.058    wigner-seitz radius (au A)           
   ENMAX  =  368.648; ENMIN  =  276.486 eV                                      
   RCLOC  =    1.304    cutoff for local pot                                    
   LCOR   =        T    correct aug charges                                     
   LPAW   =        T    paw PP                                                  
   EAUG   =  758.233                                                            
   DEXC   =    0.000                                                            
   RMAX   =    2.046    core radius for proj-oper                               
   RAUG   =    1.300    factor for augmentation sphere                          
   RDEP   =    2.025    radius for radial grids                                 
   RDEPT  =    1.558    core radius for aug-charge                              
                                                                                
   Atomic configuration                                                         
    8 entries                                                                   
     n  l   j            E        occ.                                          
     1  0  0.50     -8850.2467   2.0000                                         
     2  0  0.50     -1062.3498   2.0000                                         
     2  1  1.50      -916.8226   6.0000                                         
     3  0  0.50      -114.6929   2.0000                                         
     3  1  1.50       -72.1325   6.0000                                         
     3  2  2.50        -5.0394  10.0000                                         
     4  0  0.50        -4.6097   1.0000                                         
     4  3  2.50        -1.3606   0.0000                                         
   Description                                                                  
     l       E           TYP  RCUT    TYP  RCUT                                 
     1    -72.1324777     23  1.700                                             
     1     -1.3605826     23  1.700                                             
     2     -5.0393776     23  2.000                                             
     2     -6.3999602     23  2.000                                             
     0     -4.6097062     23  1.800                                             
     0     14.1620818     23  1.800                                             
  local pseudopotential read in
  partial core-charges read in
  partial kinetic energy density read in
  atomic valenz-charges read in
  non local Contribution for L=           1  read in
    real space projection operators read in
  non local Contribution for L=           1  read in
    real space projection operators read in
  non local Contribution for L=           2  read in
    real space projection operators read in
  non local Contribution for L=           2  read in
    real space projection operators read in
  non local Contribution for L=           0  read in
    real space projection operators read in
  non local Contribution for L=           0  read in
    real space projection operators read in
    PAW grid and wavefunctions read in
 
   number of l-projection  operators is LMAX  =           6
   number of lm-projection operators is LMMAX =          18
 
 POTCAR:    PAW_PBE Pt_pv 12Dec2005               
   VRHFIN =Pt: 5ps1d9                                                           
   LEXCH  = PE                                                                  
   EATOM  =  2428.2504 eV,  178.4714 Ry                                         
                                                                                
   TITEL  = PAW_PBE Pt_pv 12Dec2005                                             
   LULTRA =        F    use ultrasoft PP ?                                      
   IUNSCR =        1    unscreen: 0-lin 1-nonlin 2-no                           
   RPACOR =    2.000    partial core radius                                     
   POMASS =  195.080; ZVAL   =   16.000    mass and valenz                      
   RCORE  =    2.200    outmost cutoff radius                                   
   RWIGS  =    2.200; RWIGS  =    1.164    wigner-seitz radius (au A)           
   ENMAX  =  294.607; ENMIN  =  220.955 eV                                      
   ICORE  =        3    local potential                                         
   LCOR   =        T    correct aug charges                                     
   LPAW   =        T    paw PP                                                  
   EAUG   =  527.014                                                            
   DEXC   =    0.000                                                            
   RMAX   =    2.247    core radius for proj-oper                               
   RAUG   =    1.300    factor for augmentation sphere                          
   RDEP   =    2.279    radius for radial grids                                 
   RDEPT  =    1.878    core radius for aug-charge                              
                                                                                
   Atomic configuration                                                         
   16 entries                                                                   
     n  l   j            E        occ.                                          
     1  0  0.50    -78401.1885   2.0000                                         
     2  0  0.50    -13770.7750   2.0000                                         
     2  1  1.50    -11931.0468   6.0000                                         
     3  0  0.50     -3234.7234   2.0000                                         
     3  1  1.50     -2699.2216   6.0000                                         
     3  2  2.50     -2119.5714  10.0000                                         
     4  0  0.50      -695.1528   2.0000                                         
     4  1  1.50      -519.6034   6.0000                                         
     4  2  2.50      -306.6786  10.0000                                         
     4  3  3.50       -70.1041  14.0000                                         
     5  0  0.50      -101.7747   2.0000                                         
     5  1  1.50       -55.9873   6.0000                                         
     6  1  1.50        -6.8029   0.0000                                         
     5  2  2.50        -6.1423   9.0000                                         
     6  0  0.50        -5.6573   1.0000                                         
     5  3  2.50        -1.3606   0.0000                                         
   Description                                                                  
     l       E           TYP  RCUT    TYP  RCUT                                 
     1    -55.9873477     23  2.000                                             
     1     27.2116520     23  2.000                                             
     2     -6.1423404     23  2.200                                             
     2     -4.6754623     23  2.200                                             
     0     -5.6573207     23  2.200                                             
     0     47.6203910     23  2.200                                             
     3      6.8029130     23  2.200                                             
  local pseudopotential read in
  partial core-charges read in
  partial kinetic energy density read in
  atomic valenz-charges read in
  non local Contribution for L=           1  read in
    real space projection operators read in
  non local Contribution for L=           1  read in
    real space projection operators read in
  non local Contribution for L=           2  read in
    real space projection operators read in
  non local Contribution for L=           2  read in
    real space projection operators read in
  non local Contribution for L=           0  read in
    real space projection operators read in
  non local Contribution for L=           0  read in
    real space projection operators read in
    PAW grid and wavefunctions read in
 
   number of l-projection  operators is LMAX  =           6
   number of lm-projection operators is LMMAX =          18
 
  PAW_PBE Cu_pv 06Sep2000               :
 energy of atom  1       EATOM=-4120.1201
 kinetic energy error for atom=    0.1300 (will be added to EATOM!!)
  PAW_PBE Pt_pv 12Dec2005               :
 energy of atom  2       EATOM=-2428.2504
 kinetic energy error for atom=    0.1135 (will be added to EATOM!!)
 
 
 POSCAR: MLIP output to VASP                     
  positions in cartesian coordinates
  No initial velocities read in
 exchange correlation table for  LEXCH =        8
   RHO(1)=    0.500       N(1)  =     2000
   RHO(2)=  100.500       N(2)  =     4000
 


--------------------------------------------------------------------------------------------------------


 ion  position               nearest neighbor table
   1  0.000  0.000  0.000-
   2  0.667  0.333  0.111-   3 2.77   3 2.77   3 2.77
   3  0.333  0.667  0.222-   2 2.77   2 2.77   2 2.77   4 2.77   4 2.77   4 2.77
   4  0.000  0.000  0.333-   5 2.77   5 2.77   5 2.77   3 2.77   3 2.77   3 2.77
   5  0.667  0.333  0.444-   4 2.77   4 2.77   4 2.77   6 2.77   6 2.77   6 2.77
   6  0.333  0.667  0.556-   7 2.77   7 2.77   7 2.77   5 2.77   5 2.77   5 2.77
   7  0.000  0.000  0.667-   6 2.77   6 2.77   6 2.77   8 2.77   8 2.77   8 2.77
   8  0.667  0.333  0.778-   9 2.77   9 2.77   9 2.77   7 2.77   7 2.77   7 2.77
   9  0.333  0.667  0.889-   8 2.77   8 2.77   8 2.77
 
  LATTYP: Found a hexagonal cell.
 ALAT       =     2.7689594444
 C/A-ratio  =     7.3484692283
  
  Lattice vectors:
  
 A1 = (   0.0000000000,   1.9579500000,   1.9579500000)
 A2 = (   1.9579500000,  -1.9579500000,   0.0000000000)
 A3 = (  11.7477000000,  11.7477000000, -11.7477000000)


Analysis of symmetry for initial positions (statically):
=====================================================================
 Subroutine PRICEL returns:
 Original cell was already a primitive cell.
 

 Routine SETGRP: Setting up the symmetry group for a 
 hexagonal supercell.


 Subroutine GETGRP returns: Found 12 space group operations
 (whereof 12 operations were pure point group operations)
 out of a pool of 24 trial point group operations.


The static configuration has the point symmetry D_3d.


Analysis of symmetry for dynamics (positions and initial velocities):
=====================================================================
 Subroutine PRICEL returns:
 Original cell was already a primitive cell.
 

 Routine SETGRP: Setting up the symmetry group for a 
 hexagonal supercell.


 Subroutine GETGRP returns: Found 12 space group operations
 (whereof 12 operations were pure point group operations)
 out of a pool of 24 trial point group operations.


The dynamic configuration has the point symmetry D_3d.


 Subroutine INISYM returns: Found 12 space group operations
 (whereof 12 operations are pure point group operations),
 and found     1 'primitive' translations

 
 

Automatic generation of k-mesh.
 generate k-points for:   30   30    4
Space group operators:
 irot       det(A)        alpha          n_x          n_y          n_z        tau_x        tau_y        tau_z
    1     1.000000     0.000001     1.000000     0.000000     0.000000     0.000000     0.000000     0.000000
    2    -1.000000     0.000001     1.000000     0.000000     0.000000     0.000000     0.000000     0.000000
    3     1.000000   120.000000    -0.577350    -0.577350     0.577350     0.000000     0.000000     0.000000
    4    -1.000000   120.000000    -0.577350    -0.577350     0.577350     0.000000     0.000000     0.000000
    5     1.000000   120.000000     0.577350     0.577350    -0.577350     0.000000     0.000000     0.000000
    6    -1.000000   120.000000     0.577350     0.577350    -0.577350     0.000000     0.000000     0.000000
    7     1.000000   180.000000    -0.000000     0.707107     0.707107     0.000000     0.000000     0.000000
    8    -1.000000   180.000000    -0.000000     0.707107     0.707107     0.000000     0.000000     0.000000
    9     1.000000   180.000000     0.707107    -0.707107    -0.000000     0.000000     0.000000     0.000000
   10    -1.000000   180.000000     0.707107    -0.707107    -0.000000     0.000000     0.000000     0.000000
   11     1.000000   180.000000     0.707107     0.000000     0.707107     0.000000     0.000000     0.000000
   12    -1.000000   180.000000     0.707107     0.000000     0.707107     0.000000     0.000000     0.000000
 
 Subroutine IBZKPT returns following result:
 ===========================================
 
 Found    348 irreducible k-points:
 
 Following reciprocal coordinates:
            Coordinates               Weight
  0.000000  0.000000  0.000000      1.000000
  0.033333 -0.000000  0.000000      6.000000
  0.066667 -0.000000  0.000000      6.000000
  0.100000 -0.000000 -0.000000      6.000000
  0.133333 -0.000000  0.000000      6.000000
  0.166667 -0.000000  0.000000      6.000000
  0.200000  0.000000 -0.000000      6.000000
  0.233333 -0.000000 -0.000000      6.000000
  0.266667 -0.000000  0.000000      6.000000
  0.300000  0.000000  0.000000      6.000000
  0.333333  0.000000  0.000000      6.000000
  0.366667 -0.000000 -0.000000      6.000000
  0.400000  0.000000 -0.000000      6.000000
  0.433333 -0.000000 -0.000000      6.000000
  0.466667 -0.000000 -0.000000      6.000000
  0.500000 -0.000000  0.000000      3.000000
  0.033333  0.033333 -0.000000      6.000000
  0.066667  0.033333  0.000000     12.000000
  0.100000  0.033333 -0.000000     12.000000
  0.133333  0.033333  0.000000     12.000000
  0.166667  0.033333 -0.000000     12.000000
  0.200000  0.033333 -0.000000     12.000000
  0.233333  0.033333  0.000000     12.000000
  0.266667  0.033333  0.000000     12.000000
  0.300000  0.033333  0.000000     12.000000
  0.333333  0.033333  0.000000     12.000000
  0.366667  0.033333 -0.000000     12.000000
  0.400000  0.033333 -0.000000     12.000000
  0.433333  0.033333 -0.000000     12.000000
  0.466667  0.033333 -0.000000     12.000000
  0.066667  0.066667 -0.000000      6.000000
  0.100000  0.066667  0.000000     12.000000
  0.133333  0.066667  0.000000     12.000000
  0.166667  0.066667 -0.000000     12.000000
  0.200000  0.066667 -0.000000     12.000000
  0.233333  0.066667 -0.000000     12.000000
  0.266667  0.066667  0.000000     12.000000
  0.300000  0.066667  0.000000     12.000000
  0.333333  0.066667 -0.000000     12.000000
  0.366667  0.066667  0.000000     12.000000
  0.400000  0.066667 -0.000000     12.000000
  0.433333  0.066667 -0.000000     12.000000
  0.466667  0.066667  0.000000      6.000000
  0.100000  0.100000 -0.000000      6.000000
  0.133333  0.100000  0.000000     12.000000
  0.166667  0.100000  0.000000     12.000000
  0.200000  0.100000  0.000000     12.000000
  0.233333  0.100000  0.000000     12.000000
  0.266667  0.100000  0.000000     12.000000
  0.300000  0.100000  0.000000     12.000000
  0.333333  0.100000  0.000000     12.000000
  0.366667  0.100000 -0.000000     12.000000
  0.400000  0.100000  0.000000     12.000000
  0.433333  0.100000  0.000000     12.000000
  0.133333  0.133333 -0.000000      6.000000
  0.166667  0.133333  0.000000     12.000000
  0.200000  0.133333  0.000000     12.000000
  0.233333  0.133333  0.000000     12.000000
  0.266667  0.133333  0.000000     12.000000
  0.300000  0.133333  0.000000     12.000000
  0.333333  0.133333  0.000000     12.000000
  0.366667  0.133333  0.000000     12.000000
  0.400000  0.133333 -0.000000     12.000000
  0.433333  0.133333 -0.000000      6.000000
  0.166667  0.166667  0.000000      6.000000
  0.200000  0.166667  0.000000     12.000000
  0.233333  0.166667  0.000000     12.000000
  0.266667  0.166667  0.000000     12.000000
  0.300000  0.166667  0.000000     12.000000
  0.333333  0.166667 -0.000000     12.000000
  0.366667  0.166667  0.000000     12.000000
  0.400000  0.166667  0.000000     12.000000
  0.200000  0.200000  0.000000      6.000000
  0.233333  0.200000 -0.000000     12.000000
  0.266667  0.200000  0.000000     12.000000
  0.300000  0.200000  0.000000     12.000000
  0.333333  0.200000  0.000000     12.000000
  0.366667  0.200000 -0.000000     12.000000
  0.400000  0.200000  0.000000      6.000000
  0.233333  0.233333  0.000000      6.000000
  0.266667  0.233333  0.000000     12.000000
  0.300000  0.233333 -0.000000     12.000000
  0.333333  0.233333  0.000000     12.000000
  0.366667  0.233333  0.000000     12.000000
  0.266667  0.266667  0.000000      6.000000
  0.300000  0.266667  0.000000     12.000000
  0.333333  0.266667  0.000000     12.000000
  0.366667  0.266667 -0.000000      6.000000
  0.300000  0.300000 -0.000000      6.000000
  0.333333  0.300000 -0.000000     12.000000
  0.333333  0.333333 -0.000000      2.000000
 -0.000000  0.000000  0.250000      2.000000
  0.033333 -0.000000  0.250000      6.000000
  0.066667  0.000000  0.250000      6.000000
  0.100000 -0.000000  0.250000      6.000000
  0.133333  0.000000  0.250000      6.000000
  0.166667 -0.000000  0.250000      6.000000
  0.200000 -0.000000  0.250000      6.000000
  0.233333 -0.000000  0.250000      6.000000
  0.266667 -0.000000  0.250000      6.000000
  0.300000 -0.000000  0.250000      6.000000
  0.333333  0.000000  0.250000      6.000000
  0.366667 -0.000000  0.250000      6.000000
  0.400000  0.000000  0.250000      6.000000
  0.433333 -0.000000  0.250000      6.000000
  0.466667 -0.000000  0.250000      6.000000
  0.500000 -0.000000  0.250000      6.000000
 -0.466667  0.000000  0.250000      6.000000
 -0.433333  0.000000  0.250000      6.000000
 -0.400000  0.000000  0.250000      6.000000
 -0.366667 -0.000000  0.250000      6.000000
 -0.333333  0.000000  0.250000      6.000000
 -0.300000 -0.000000  0.250000      6.000000
 -0.266667  0.000000  0.250000      6.000000
 -0.233333  0.000000  0.250000      6.000000
 -0.200000  0.000000  0.250000      6.000000
 -0.166667 -0.000000  0.250000      6.000000
 -0.133333  0.000000  0.250000      6.000000
 -0.100000  0.000000  0.250000      6.000000
 -0.066667  0.000000  0.250000      6.000000
 -0.033333  0.000000  0.250000      6.000000
  0.033333  0.033333  0.250000     12.000000
  0.066667  0.033333  0.250000     12.000000
  0.100000  0.033333  0.250000     12.000000
  0.133333  0.033333  0.250000     12.000000
  0.166667  0.033333  0.250000     12.000000
  0.200000  0.033333  0.250000     12.000000
  0.233333  0.033333  0.250000     12.000000
  0.266667  0.033333  0.250000     12.000000
  0.300000  0.033333  0.250000     12.000000
  0.333333  0.033333  0.250000     12.000000
  0.366667  0.033333  0.250000     12.000000
  0.400000  0.033333  0.250000     12.000000
  0.433333  0.033333  0.250000     12.000000
  0.466667  0.033333  0.250000     12.000000
  0.500000  0.033333  0.250000     12.000000
 -0.466667  0.033333  0.250000     12.000000
 -0.433333  0.033333  0.250000     12.000000
 -0.400000  0.033333  0.250000     12.000000
 -0.366667  0.033333  0.250000     12.000000
 -0.333333  0.033333  0.250000     12.000000
 -0.300000  0.033333  0.250000     12.000000
 -0.266667  0.033333  0.250000     12.000000
 -0.233333  0.033333  0.250000     12.000000
 -0.200000  0.033333  0.250000     12.000000
 -0.166667  0.033333  0.250000     12.000000
 -0.133333  0.033333  0.250000     12.000000
 -0.100000  0.033333  0.250000     12.000000
  0.066667  0.066667  0.250000     12.000000
  0.100000  0.066667  0.250000     12.000000
  0.133333  0.066667  0.250000     12.000000
  0.166667  0.066667  0.250000     12.000000
  0.200000  0.066667  0.250000     12.000000
  0.233333  0.066667  0.250000     12.000000
  0.266667  0.066667  0.250000     12.000000
  0.300000  0.066667  0.250000     12.000000
  0.333333  0.066667  0.250000     12.000000
  0.366667  0.066667  0.250000     12.000000
  0.400000  0.066667  0.250000     12.000000
  0.433333  0.066667  0.250000     12.000000
  0.466667  0.066667  0.250000     12.000000
  0.500000  0.066667  0.250000     12.000000
 -0.466667  0.066667  0.250000     12.000000
 -0.433333  0.066667  0.250000     12.000000
 -0.400000  0.066667  0.250000     12.000000
 -0.366667  0.066667  0.250000     12.000000
 -0.333333  0.066667  0.250000     12.000000
 -0.300000  0.066667  0.250000     12.000000
 -0.266667  0.066667  0.250000     12.000000
 -0.233333  0.066667  0.250000     12.000000
 -0.200000  0.066667  0.250000     12.000000
 -0.166667  0.066667  0.250000     12.000000
  0.100000  0.100000  0.250000     12.000000
  0.133333  0.100000  0.250000     12.000000
  0.166667  0.100000  0.250000     12.000000
  0.200000  0.100000  0.250000     12.000000
  0.233333  0.100000  0.250000     12.000000
  0.266667  0.100000  0.250000     12.000000
  0.300000  0.100000  0.250000     12.000000
  0.333333  0.100000  0.250000     12.000000
  0.366667  0.100000  0.250000     12.000000
  0.400000  0.100000  0.250000     12.000000
  0.433333  0.100000  0.250000     12.000000
  0.466667  0.100000  0.250000     12.000000
  0.500000  0.100000  0.250000     12.000000
 -0.466667  0.100000  0.250000     12.000000
 -0.433333  0.100000  0.250000     12.000000
 -0.400000  0.100000  0.250000     12.000000
 -0.366667  0.100000  0.250000     12.000000
 -0.333333  0.100000  0.250000     12.000000
 -0.300000  0.100000  0.250000     12.000000
 -0.266667  0.100000  0.250000     12.000000
 -0.233333  0.100000  0.250000     12.000000
  0.133333  0.133333  0.250000     12.000000
  0.166667  0.133333  0.250000     12.000000
  0.200000  0.133333  0.250000     12.000000
  0.233333  0.133333  0.250000     12.000000
  0.266667  0.133333  0.250000     12.000000
  0.300000  0.133333  0.250000     12.000000
  0.333333  0.133333  0.250000     12.000000
  0.366667  0.133333  0.250000     12.000000
  0.400000  0.133333  0.250000     12.000000
  0.433333  0.133333  0.250000     12.000000
  0.466667  0.133333  0.250000     12.000000
  0.500000  0.133333  0.250000     12.000000
 -0.466667  0.133333  0.250000     12.000000
 -0.433333  0.133333  0.250000     12.000000
 -0.400000  0.133333  0.250000     12.000000
 -0.366667  0.133333  0.250000     12.000000
 -0.333333  0.133333  0.250000     12.000000
 -0.300000  0.133333  0.250000     12.000000
  0.166667  0.166667  0.250000     12.000000
  0.200000  0.166667  0.250000     12.000000
  0.233333  0.166667  0.250000     12.000000
  0.266667  0.166667  0.250000     12.000000
  0.300000  0.166667  0.250000     12.000000
  0.333333  0.166667  0.250000     12.000000
  0.366667  0.166667  0.250000     12.000000
  0.400000  0.166667  0.250000     12.000000
  0.433333  0.166667  0.250000     12.000000
  0.466667  0.166667  0.250000     12.000000
  0.500000  0.166667  0.250000     12.000000
 -0.466667  0.166667  0.250000     12.000000
 -0.433333  0.166667  0.250000     12.000000
 -0.400000  0.166667  0.250000     12.000000
 -0.366667  0.166667  0.250000     12.000000
  0.200000  0.200000  0.250000     12.000000
  0.233333  0.200000  0.250000     12.000000
  0.266667  0.200000  0.250000     12.000000
  0.300000  0.200000  0.250000     12.000000
  0.333333  0.200000  0.250000     12.000000
  0.366667  0.200000  0.250000     12.000000
  0.400000  0.200000  0.250000     12.000000
  0.433333  0.200000  0.250000     12.000000
  0.466667  0.200000  0.250000     12.000000
  0.500000  0.200000  0.250000     12.000000
 -0.466667  0.200000  0.250000     12.000000
 -0.433333  0.200000  0.250000     12.000000
  0.233333  0.233333  0.250000     12.000000
  0.266667  0.233333  0.250000     12.000000
  0.300000  0.233333  0.250000     12.000000
  0.333333  0.233333  0.250000     12.000000
  0.366667  0.233333  0.250000     12.000000
  0.400000  0.233333  0.250000     12.000000
  0.433333  0.233333  0.250000     12.000000
  0.466667  0.233333  0.250000     12.000000
  0.500000  0.233333  0.250000     12.000000
  0.266667  0.266667  0.250000     12.000000
  0.300000  0.266667  0.250000     12.000000
  0.333333  0.266667  0.250000     12.000000
  0.366667  0.266667  0.250000     12.000000
  0.400000  0.266667  0.250000     12.000000
  0.433333  0.266667  0.250000     12.000000
  0.300000  0.300000  0.250000     12.000000
  0.333333  0.300000  0.250000     12.000000
  0.366667  0.300000  0.250000     12.000000
  0.333333  0.333333  0.250000      4.000000
 -0.000000  0.000000  0.500000      1.000000
  0.033333  0.000000  0.500000      6.000000
  0.066667 -0.000000  0.500000      6.000000
  0.100000  0.000000  0.500000      6.000000
  0.133333  0.000000  0.500000      6.000000
  0.166667 -0.000000  0.500000      6.000000
  0.200000 -0.000000  0.500000      6.000000
  0.233333 -0.000000  0.500000      6.000000
  0.266667 -0.000000  0.500000      6.000000
  0.300000 -0.000000  0.500000      6.000000
  0.333333 -0.000000  0.500000      6.000000
  0.366667 -0.000000  0.500000      6.000000
  0.400000 -0.000000  0.500000      6.000000
  0.433333  0.000000  0.500000      6.000000
  0.466667 -0.000000  0.500000      6.000000
  0.500000 -0.000000  0.500000      3.000000
  0.033333  0.033333  0.500000      6.000000
  0.066667  0.033333  0.500000     12.000000
  0.100000  0.033333  0.500000     12.000000
  0.133333  0.033333  0.500000     12.000000
  0.166667  0.033333  0.500000     12.000000
  0.200000  0.033333  0.500000     12.000000
  0.233333  0.033333  0.500000     12.000000
  0.266667  0.033333  0.500000     12.000000
  0.300000  0.033333  0.500000     12.000000
  0.333333  0.033333  0.500000     12.000000
  0.366667  0.033333  0.500000     12.000000
  0.400000  0.033333  0.500000     12.000000
  0.433333  0.033333  0.500000     12.000000
  0.466667  0.033333  0.500000     12.000000
  0.066667  0.066667  0.500000      6.000000
  0.100000  0.066667  0.500000     12.000000
  0.133333  0.066667  0.500000     12.000000
  0.166667  0.066667  0.500000     12.000000
  0.200000  0.066667  0.500000     12.000000
  0.233333  0.066667  0.500000     12.000000
  0.266667  0.066667  0.500000     12.000000
  0.300000  0.066667  0.500000     12.000000
  0.333333  0.066667  0.500000     12.000000
  0.366667  0.066667  0.500000     12.000000
  0.400000  0.066667  0.500000     12.000000
  0.433333  0.066667  0.500000     12.000000
  0.466667  0.066667  0.500000      6.000000
  0.100000  0.100000  0.500000      6.000000
  0.133333  0.100000  0.500000     12.000000
  0.166667  0.100000  0.500000     12.000000
  0.200000  0.100000  0.500000     12.000000
  0.233333  0.100000  0.500000     12.000000
  0.266667  0.100000  0.500000     12.000000
  0.300000  0.100000  0.500000     12.000000
  0.333333  0.100000  0.500000     12.000000
  0.366667  0.100000  0.500000     12.000000
  0.400000  0.100000  0.500000     12.000000
  0.433333  0.100000  0.500000     12.000000
  0.133333  0.133333  0.500000      6.000000
  0.166667  0.133333  0.500000     12.000000
  0.200000  0.133333  0.500000     12.000000
  0.233333  0.133333  0.500000     12.000000
  0.266667  0.133333  0.500000     12.000000
  0.300000  0.133333  0.500000     12.000000
  0.333333  0.133333  0.500000     12.000000
  0.366667  0.133333  0.500000     12.000000
  0.400000  0.133333  0.500000     12.000000
  0.433333  0.133333  0.500000      6.000000
  0.166667  0.166667  0.500000      6.000000
  0.200000  0.166667  0.500000     12.000000
  0.233333  0.166667  0.500000     12.000000
  0.266667  0.166667  0.500000     12.000000
  0.300000  0.166667  0.500000     12.000000
  0.333333  0.166667  0.500000     12.000000
  0.366667  0.166667  0.500000     12.000000
  0.400000  0.166667  0.500000     12.000000
  0.200000  0.200000  0.500000      6.000000
  0.233333  0.200000  0.500000     12.000000
  0.266667  0.200000  0.500000     12.000000
  0.300000  0.200000  0.500000     12.000000
  0.333333  0.200000  0.500000     12.000000
  0.366667  0.200000  0.500000     12.000000
  0.400000  0.200000  0.500000      6.000000
  0.233333  0.233333  0.500000      6.000000
  0.266667  0.233333  0.500000     12.000000
  0.300000  0.233333  0.500000     12.000000
  0.333333  0.233333  0.500000     12.000000
  0.366667  0.233333  0.500000     12.000000
  0.266667  0.266667  0.500000      6.000000
  0.300000  0.266667  0.500000     12.000000
  0.333333  0.266667  0.500000     12.000000
  0.366667  0.266667  0.500000      6.000000
  0.300000  0.300000  0.500000      6.000000
  0.333333  0.300000  0.500000     12.000000
  0.333333  0.333333  0.500000      2.000000
 
 Following cartesian coordinates:
            Coordinates               Weight
  0.000000  0.000000  0.000000      1.000000
  0.005675  0.005675  0.011350      6.000000
  0.011350  0.011350  0.022699      6.000000
  0.017025  0.017025  0.034049      6.000000
  0.022699  0.022699  0.045399      6.000000
  0.028374  0.028374  0.056749      6.000000
  0.034049  0.034049  0.068098      6.000000
  0.039724  0.039724  0.079448      6.000000
  0.045399  0.045399  0.090798      6.000000
  0.051074  0.051074  0.102148      6.000000
  0.056749  0.056749  0.113497      6.000000
  0.062424  0.062424  0.124847      6.000000
  0.068098  0.068098  0.136197      6.000000
  0.073773  0.073773  0.147547      6.000000
  0.079448  0.079448  0.158896      6.000000
  0.085123  0.085123  0.170246      3.000000
  0.017025  0.000000  0.017025      6.000000
  0.022699  0.005675  0.028374     12.000000
  0.028374  0.011350  0.039724     12.000000
  0.034049  0.017025  0.051074     12.000000
  0.039724  0.022699  0.062424     12.000000
  0.045399  0.028374  0.073773     12.000000
  0.051074  0.034049  0.085123     12.000000
  0.056749  0.039724  0.096473     12.000000
  0.062424  0.045399  0.107823     12.000000
  0.068098  0.051074  0.119172     12.000000
  0.073773  0.056749  0.130522     12.000000
  0.079448  0.062424  0.141872     12.000000
  0.085123  0.068098  0.153221     12.000000
  0.090798  0.073773  0.164571     12.000000
  0.034049  0.000000  0.034049      6.000000
  0.039724  0.005675  0.045399     12.000000
  0.045399  0.011350  0.056749     12.000000
  0.051074  0.017025  0.068098     12.000000
  0.056749  0.022699  0.079448     12.000000
  0.062424  0.028374  0.090798     12.000000
  0.068098  0.034049  0.102148     12.000000
  0.073773  0.039724  0.113497     12.000000
  0.079448  0.045399  0.124847     12.000000
  0.085123  0.051074  0.136197     12.000000
  0.090798  0.056749  0.147547     12.000000
  0.096473  0.062424  0.158896     12.000000
  0.102148  0.068098  0.170246      6.000000
  0.051074  0.000000  0.051074      6.000000
  0.056749  0.005675  0.062424     12.000000
  0.062424  0.011350  0.073773     12.000000
  0.068098  0.017025  0.085123     12.000000
  0.073773  0.022699  0.096473     12.000000
  0.079448  0.028374  0.107823     12.000000
  0.085123  0.034049  0.119172     12.000000
  0.090798  0.039724  0.130522     12.000000
  0.096473  0.045399  0.141872     12.000000
  0.102148  0.051074  0.153221     12.000000
  0.107823  0.056749  0.164571     12.000000
  0.068098  0.000000  0.068098      6.000000
  0.073773  0.005675  0.079448     12.000000
  0.079448  0.011350  0.090798     12.000000
  0.085123  0.017025  0.102148     12.000000
  0.090798  0.022699  0.113497     12.000000
  0.096473  0.028374  0.124847     12.000000
  0.102148  0.034049  0.136197     12.000000
  0.107823  0.039724  0.147547     12.000000
  0.113497  0.045399  0.158896     12.000000
  0.119172  0.051074  0.170246      6.000000
  0.085123  0.000000  0.085123      6.000000
  0.090798  0.005675  0.096473     12.000000
  0.096473  0.011350  0.107823     12.000000
  0.102148  0.017025  0.119172     12.000000
  0.107823  0.022699  0.130522     12.000000
  0.113497  0.028374  0.141872     12.000000
  0.119172  0.034049  0.153221     12.000000
  0.124847  0.039724  0.164571     12.000000
  0.102148 -0.000000  0.102148      6.000000
  0.107823  0.005675  0.113497     12.000000
  0.113497  0.011350  0.124847     12.000000
  0.119172  0.017025  0.136197     12.000000
  0.124847  0.022699  0.147547     12.000000
  0.130522  0.028374  0.158896     12.000000
  0.136197  0.034049  0.170246      6.000000
  0.119172  0.000000  0.119172      6.000000
  0.124847  0.005675  0.130522     12.000000
  0.130522  0.011350  0.141872     12.000000
  0.136197  0.017025  0.153221     12.000000
  0.141872  0.022699  0.164571     12.000000
  0.136197  0.000000  0.136197      6.000000
  0.141872  0.005675  0.147547     12.000000
  0.147547  0.011350  0.158896     12.000000
  0.153221  0.017025  0.170246      6.000000
  0.153221  0.000000  0.153221      6.000000
  0.158896  0.005675  0.164571     12.000000
  0.170246 -0.000000  0.170246      2.000000
  0.007094  0.007094 -0.007094      2.000000
  0.012768  0.012768  0.004256      6.000000
  0.018443  0.018443  0.015606      6.000000
  0.024118  0.024118  0.026956      6.000000
  0.029793  0.029793  0.038305      6.000000
  0.035468  0.035468  0.049655      6.000000
  0.041143  0.041143  0.061005      6.000000
  0.046818  0.046818  0.072355      6.000000
  0.052493  0.052493  0.083704      6.000000
  0.058167  0.058167  0.095054      6.000000
  0.063842  0.063842  0.106404      6.000000
  0.069517  0.069517  0.117754      6.000000
  0.075192  0.075192  0.129103      6.000000
  0.080867  0.080867  0.140453      6.000000
  0.086542  0.086542  0.151803      6.000000
  0.092217  0.092217  0.163153      6.000000
 -0.072355 -0.072355 -0.165990      6.000000
 -0.066680 -0.066680 -0.154640      6.000000
 -0.061005 -0.061005 -0.143290      6.000000
 -0.055330 -0.055330 -0.131941      6.000000
 -0.049655 -0.049655 -0.120591      6.000000
 -0.043980 -0.043980 -0.109241      6.000000
 -0.038305 -0.038305 -0.097892      6.000000
 -0.032631 -0.032631 -0.086542      6.000000
 -0.026956 -0.026956 -0.075192      6.000000
 -0.021281 -0.021281 -0.063842      6.000000
 -0.015606 -0.015606 -0.052493      6.000000
 -0.009931 -0.009931 -0.041143      6.000000
 -0.004256 -0.004256 -0.029793      6.000000
  0.001419  0.001419 -0.018443      6.000000
  0.024118  0.007094  0.009931     12.000000
  0.029793  0.012768  0.021281     12.000000
  0.035468  0.018443  0.032631     12.000000
  0.041143  0.024118  0.043980     12.000000
  0.046818  0.029793  0.055330     12.000000
  0.052493  0.035468  0.066680     12.000000
  0.058167  0.041143  0.078029     12.000000
  0.063842  0.046818  0.089379     12.000000
  0.069517  0.052493  0.100729     12.000000
  0.075192  0.058167  0.112079     12.000000
  0.080867  0.063842  0.123428     12.000000
  0.086542  0.069517  0.134778     12.000000
  0.092217  0.075192  0.146128     12.000000
  0.097892  0.080867  0.157478     12.000000
  0.103566  0.086542  0.168827     12.000000
 -0.061005 -0.078029 -0.160315     12.000000
 -0.055330 -0.072355 -0.148965     12.000000
 -0.049655 -0.066680 -0.137616     12.000000
 -0.043980 -0.061005 -0.126266     12.000000
 -0.038305 -0.055330 -0.114916     12.000000
 -0.032631 -0.049655 -0.103566     12.000000
 -0.026956 -0.043980 -0.092217     12.000000
 -0.021281 -0.038305 -0.080867     12.000000
 -0.015606 -0.032631 -0.069517     12.000000
 -0.009931 -0.026956 -0.058167     12.000000
 -0.004256 -0.021281 -0.046818     12.000000
  0.001419 -0.015606 -0.035468     12.000000
  0.041143  0.007094  0.026956     12.000000
  0.046818  0.012768  0.038305     12.000000
  0.052493  0.018443  0.049655     12.000000
  0.058167  0.024118  0.061005     12.000000
  0.063842  0.029793  0.072355     12.000000
  0.069517  0.035468  0.083704     12.000000
  0.075192  0.041143  0.095054     12.000000
  0.080867  0.046818  0.106404     12.000000
  0.086542  0.052493  0.117754     12.000000
  0.092217  0.058167  0.129103     12.000000
  0.097892  0.063842  0.140453     12.000000
  0.103566  0.069517  0.151803     12.000000
  0.109241  0.075192  0.163153     12.000000
  0.114916  0.080867  0.174502     12.000000
 -0.049655 -0.083704 -0.154640     12.000000
 -0.043980 -0.078029 -0.143290     12.000000
 -0.038305 -0.072355 -0.131941     12.000000
 -0.032631 -0.066680 -0.120591     12.000000
 -0.026956 -0.061005 -0.109241     12.000000
 -0.021281 -0.055330 -0.097892     12.000000
 -0.015606 -0.049655 -0.086542     12.000000
 -0.009931 -0.043980 -0.075192     12.000000
 -0.004256 -0.038305 -0.063842     12.000000
  0.001419 -0.032631 -0.052493     12.000000
  0.058167  0.007094  0.043980     12.000000
  0.063842  0.012768  0.055330     12.000000
  0.069517  0.018443  0.066680     12.000000
  0.075192  0.024118  0.078029     12.000000
  0.080867  0.029793  0.089379     12.000000
  0.086542  0.035468  0.100729     12.000000
  0.092217  0.041143  0.112079     12.000000
  0.097892  0.046818  0.123428     12.000000
  0.103566  0.052493  0.134778     12.000000
  0.109241  0.058167  0.146128     12.000000
  0.114916  0.063842  0.157478     12.000000
  0.120591  0.069517  0.168827     12.000000
  0.126266  0.075192  0.180177     12.000000
 -0.038305 -0.089379 -0.148965     12.000000
 -0.032631 -0.083704 -0.137616     12.000000
 -0.026956 -0.078029 -0.126266     12.000000
 -0.021281 -0.072355 -0.114916     12.000000
 -0.015606 -0.066680 -0.103566     12.000000
 -0.009931 -0.061005 -0.092217     12.000000
 -0.004256 -0.055330 -0.080867     12.000000
  0.001419 -0.049655 -0.069517     12.000000
  0.075192  0.007094  0.061005     12.000000
  0.080867  0.012768  0.072355     12.000000
  0.086542  0.018443  0.083704     12.000000
  0.092217  0.024118  0.095054     12.000000
  0.097892  0.029793  0.106404     12.000000
  0.103566  0.035468  0.117754     12.000000
  0.109241  0.041143  0.129103     12.000000
  0.114916  0.046818  0.140453     12.000000
  0.120591  0.052493  0.151803     12.000000
  0.126266  0.058167  0.163153     12.000000
  0.131941  0.063842  0.174502     12.000000
  0.137616  0.069517  0.185852     12.000000
 -0.026956 -0.095054 -0.143290     12.000000
 -0.021281 -0.089379 -0.131941     12.000000
 -0.015606 -0.083704 -0.120591     12.000000
 -0.009931 -0.078029 -0.109241     12.000000
 -0.004256 -0.072355 -0.097892     12.000000
  0.001419 -0.066680 -0.086542     12.000000
  0.092217  0.007094  0.078029     12.000000
  0.097892  0.012768  0.089379     12.000000
  0.103566  0.018443  0.100729     12.000000
  0.109241  0.024118  0.112079     12.000000
  0.114916  0.029793  0.123428     12.000000
  0.120591  0.035468  0.134778     12.000000
  0.126266  0.041143  0.146128     12.000000
  0.131941  0.046818  0.157478     12.000000
  0.137616  0.052493  0.168827     12.000000
  0.143290  0.058167  0.180177     12.000000
  0.148965  0.063842  0.191527     12.000000
 -0.015606 -0.100729 -0.137616     12.000000
 -0.009931 -0.095054 -0.126266     12.000000
 -0.004256 -0.089379 -0.114916     12.000000
  0.001419 -0.083704 -0.103566     12.000000
  0.109241  0.007094  0.095054     12.000000
  0.114916  0.012768  0.106404     12.000000
  0.120591  0.018443  0.117754     12.000000
  0.126266  0.024118  0.129103     12.000000
  0.131941  0.029793  0.140453     12.000000
  0.137616  0.035468  0.151803     12.000000
  0.143290  0.041143  0.163153     12.000000
  0.148965  0.046818  0.174502     12.000000
  0.154640  0.052493  0.185852     12.000000
  0.160315  0.058167  0.197202     12.000000
 -0.004256 -0.106404 -0.131941     12.000000
  0.001419 -0.100729 -0.120591     12.000000
  0.126266  0.007094  0.112079     12.000000
  0.131941  0.012768  0.123428     12.000000
  0.137616  0.018443  0.134778     12.000000
  0.143290  0.024118  0.146128     12.000000
  0.148965  0.029793  0.157478     12.000000
  0.154640  0.035468  0.168827     12.000000
  0.160315  0.041143  0.180177     12.000000
  0.165990  0.046818  0.191527     12.000000
  0.171665  0.052493  0.202877     12.000000
  0.143290  0.007094  0.129103     12.000000
  0.148965  0.012768  0.140453     12.000000
  0.154640  0.018443  0.151803     12.000000
  0.160315  0.024118  0.163153     12.000000
  0.165990  0.029793  0.174502     12.000000
  0.171665  0.035468  0.185852     12.000000
  0.160315  0.007094  0.146128     12.000000
  0.165990  0.012768  0.157478     12.000000
  0.171665  0.018443  0.168827     12.000000
  0.177340  0.007094  0.163153      4.000000
  0.014187  0.014187 -0.014187      1.000000
  0.019862  0.019862 -0.002837      6.000000
  0.025537  0.025537  0.008512      6.000000
  0.031212  0.031212  0.019862      6.000000
  0.036887  0.036887  0.031212      6.000000
  0.042562  0.042562  0.042562      6.000000
  0.048236  0.048236  0.053911      6.000000
  0.053911  0.053911  0.065261      6.000000
  0.059586  0.059586  0.076611      6.000000
  0.065261  0.065261  0.087960      6.000000
  0.070936  0.070936  0.099310      6.000000
  0.076611  0.076611  0.110660      6.000000
  0.082286  0.082286  0.122010      6.000000
  0.087960  0.087960  0.133359      6.000000
  0.093635  0.093635  0.144709      6.000000
  0.099310  0.099310  0.156059      3.000000
  0.031212  0.014187  0.002837      6.000000
  0.036887  0.019862  0.014187     12.000000
  0.042562  0.025537  0.025537     12.000000
  0.048236  0.031212  0.036887     12.000000
  0.053911  0.036887  0.048236     12.000000
  0.059586  0.042562  0.059586     12.000000
  0.065261  0.048236  0.070936     12.000000
  0.070936  0.053911  0.082286     12.000000
  0.076611  0.059586  0.093635     12.000000
  0.082286  0.065261  0.104985     12.000000
  0.087960  0.070936  0.116335     12.000000
  0.093635  0.076611  0.127685     12.000000
  0.099310  0.082286  0.139034     12.000000
  0.104985  0.087960  0.150384     12.000000
  0.048236  0.014187  0.019862      6.000000
  0.053911  0.019862  0.031212     12.000000
  0.059586  0.025537  0.042562     12.000000
  0.065261  0.031212  0.053911     12.000000
  0.070936  0.036887  0.065261     12.000000
  0.076611  0.042562  0.076611     12.000000
  0.082286  0.048236  0.087960     12.000000
  0.087960  0.053911  0.099310     12.000000
  0.093635  0.059586  0.110660     12.000000
  0.099310  0.065261  0.122010     12.000000
  0.104985  0.070936  0.133359     12.000000
  0.110660  0.076611  0.144709     12.000000
  0.116335  0.082286  0.156059      6.000000
  0.065261  0.014187  0.036887      6.000000
  0.070936  0.019862  0.048236     12.000000
  0.076611  0.025537  0.059586     12.000000
  0.082286  0.031212  0.070936     12.000000
  0.087960  0.036887  0.082286     12.000000
  0.093635  0.042562  0.093635     12.000000
  0.099310  0.048236  0.104985     12.000000
  0.104985  0.053911  0.116335     12.000000
  0.110660  0.059586  0.127685     12.000000
  0.116335  0.065261  0.139034     12.000000
  0.122010  0.070936  0.150384     12.000000
  0.082286  0.014187  0.053911      6.000000
  0.087960  0.019862  0.065261     12.000000
  0.093635  0.025537  0.076611     12.000000
  0.099310  0.031212  0.087960     12.000000
  0.104985  0.036887  0.099310     12.000000
  0.110660  0.042562  0.110660     12.000000
  0.116335  0.048236  0.122010     12.000000
  0.122010  0.053911  0.133359     12.000000
  0.127685  0.059586  0.144709     12.000000
  0.133359  0.065261  0.156059      6.000000
  0.099310  0.014187  0.070936      6.000000
  0.104985  0.019862  0.082286     12.000000
  0.110660  0.025537  0.093635     12.000000
  0.116335  0.031212  0.104985     12.000000
  0.122010  0.036887  0.116335     12.000000
  0.127685  0.042562  0.127685     12.000000
  0.133359  0.048236  0.139034     12.000000
  0.139034  0.053911  0.150384     12.000000
  0.116335  0.014187  0.087960      6.000000
  0.122010  0.019862  0.099310     12.000000
  0.127685  0.025537  0.110660     12.000000
  0.133359  0.031212  0.122010     12.000000
  0.139034  0.036887  0.133359     12.000000
  0.144709  0.042562  0.144709     12.000000
  0.150384  0.048236  0.156059      6.000000
  0.133359  0.014187  0.104985      6.000000
  0.139034  0.019862  0.116335     12.000000
  0.144709  0.025537  0.127685     12.000000
  0.150384  0.031212  0.139034     12.000000
  0.156059  0.036887  0.150384     12.000000
  0.150384  0.014187  0.122010      6.000000
  0.156059  0.019862  0.133359     12.000000
  0.161734  0.025537  0.144709     12.000000
  0.167409  0.031212  0.156059      6.000000
  0.167409  0.014187  0.139034      6.000000
  0.173084  0.019862  0.150384     12.000000
  0.184433  0.014187  0.156059      2.000000
 


--------------------------------------------------------------------------------------------------------




 Dimension of arrays:
   k-points           NKPTS =    348   k-points in BZ     NKDIM =    348   number of bands    NBANDS=     90
   number of dos      NEDOS =    301   number of ions     NIONS =      9
   non local maximal  LDIM  =      6   non local SUM 2l+1 LMDIM =     18
   total plane-waves  NPLWV =  41472
   max r-space proj   IRMAX =      1   max aug-charges    IRDMAX=  10649
   dimension x,y,z NGX =    18 NGY =   18 NGZ =  128
   dimension x,y,z NGXF=    36 NGYF=   36 NGZF=  256
   support grid    NGXF=    36 NGYF=   36 NGZF=  256
   ions per type =               1   8
   NGX,Y,Z   is equivalent  to a cutoff of  10.81, 10.81, 10.46 a.u.
   NGXF,Y,Z  is equivalent  to a cutoff of  21.61, 21.61, 20.92 a.u.

 SYSTEM =  unknown system                          
 POSCAR =  MLIP output to VASP                     

 Startparameter for this run:
   NWRITE =      2    write-flag & timer
   PREC   = accura    normal or accurate (medium, high low for compatibility)
   ISTART =      0    job   : 0-new  1-cont  2-samecut
   ICHARG =      2    charge: 1-file 2-atom 10-const
   ISPIN  =      1    spin polarized calculation?
   LNONCOLLINEAR =      F non collinear calculations
   LSORBIT =      F    spin-orbit coupling
   INIWAV =      1    electr: 0-lowe 1-rand  2-diag
   LASPH  =      F    aspherical Exc in radial PAW
   METAGGA=      F    non-selfconsistent MetaGGA calc.

 Electronic Relaxation 1
   ENCUT  =  370.0 eV  27.19 Ry    5.21 a.u.   4.34  4.34 31.91*2*pi/ulx,y,z
   ENINI  =  370.0     initial cutoff
   ENAUG  =  758.2 eV  augmentation charge cutoff
   NELM   =     60;   NELMIN=  2; NELMDL= -5     # of ELM steps 
   EDIFF  = 0.1E-03   stopping-criterion for ELM
   LREAL  =      F    real-space projection
   NLSPLINE    = F    spline interpolate recip. space projectors
   LCOMPAT=      F    compatible to vasp.4.4
   GGA_COMPAT  = T    GGA compatible to vasp.4.4-vasp.4.6
   LMAXPAW     = -100 max onsite density
   LMAXMIX     =    2 max onsite mixed and CHGCAR
   VOSKOWN=      0    Vosko Wilk Nusair interpolation
   ROPT   =    0.00000   0.00000
 Ionic relaxation
   EDIFFG = 0.1E-02   stopping-criterion for IOM
   NSW    =      0    number of steps for IOM
   NBLOCK =      1;   KBLOCK =      1    inner block; outer block 
   IBRION =     -1    ionic relax: 0-MD 1-quasi-New 2-CG
   NFREE  =      1    steps in history (QN), initial steepest desc. (CG)
   ISIF   =      3    stress and relaxation
   IWAVPR =     10    prediction:  0-non 1-charg 2-wave 3-comb
   ISYM   =      2    0-nonsym 1-usesym 2-fastsym
   LCORR  =      T    Harris-Foulkes like correction to forces

   POTIM  = 0.5000    time-step for ionic-motion
   TEIN   =    0.0    initial temperature
   TEBEG  =    0.0;   TEEND  =   0.0 temperature during run
   SMASS  =  -3.00    Nose mass-parameter (am)
   estimated Nose-frequenzy (Omega)   =  0.10E-29 period in steps =****** mass=  -0.175E-27a.u.
   SCALEE = 1.0000    scale energy and forces
   NPACO  =    256;   APACO  = 16.0  distance and # of slots for P.C.
   PSTRESS=    0.0 pullay stress

  Mass of Ions in am
   POMASS =  63.55195.08
  Ionic Valenz
   ZVAL   =  17.00 16.00
  Atomic Wigner-Seitz radii
   RWIGS  =  -1.00 -1.00
  virtual crystal weights 
   VCA    =   1.00  1.00
   NELECT =     145.0000    total number of electrons
   NUPDOWN=      -1.0000    fix difference up-down

 DOS related values:
   EMIN   =  10.00;   EMAX   =-10.00  energy-range for DOS
   EFERMI =   0.00
   ISMEAR =     2;   SIGMA  =   0.01  broadening in eV -4-tet -1-fermi 0-gaus

 Electronic relaxation 2 (details)
   IALGO  =     38    algorithm
   LDIAG  =      T    sub-space diagonalisation (order eigenvalues)
   LSUBROT=      F    optimize rotation matrix (better conditioning)
   TURBO    =      0    0=normal 1=particle mesh
   IRESTART =      0    0=no restart 2=restart with 2 vectors
   NREBOOT  =      0    no. of reboots
   NMIN     =      0    reboot dimension
   EREF     =   0.00    reference energy to select bands
   IMIX   =      4    mixing-type and parameters
     AMIX     =   0.40;   BMIX     =  1.00
     AMIX_MAG =   1.60;   BMIX_MAG =  1.00
     AMIN     =   0.10
     WC   =   100.;   INIMIX=   1;  MIXPRE=   1;  MAXMIX= -45

 Intra band minimization:
   WEIMIN = 0.0000     energy-eigenvalue tresh-hold
   EBREAK =  0.28E-06  absolut break condition
   DEPER  =   0.30     relativ break condition  

   TIME   =   0.40     timestep for ELM

  volume/ion in A,a.u.               =      15.01       101.31
  Fermi-wavevector in a.u.,A,eV,Ry     =   1.676120  3.167407 38.223904  2.809378
  Thomas-Fermi vector in A             =   2.760619
 
 Write flags
   LWAVE        =      T    write WAVECAR
   LDOWNSAMPLE  =      F    k-point downsampling of WAVECAR
   LCHARG       =      T    write CHGCAR
   LVTOT        =      F    write LOCPOT, total local potential
   LVHAR        =      F    write LOCPOT, Hartree potential only
   LELF         =      F    write electronic localiz. function (ELF)
   LORBIT       =      0    0 simple, 1 ext, 2 COOP (PROOUT), +10 PAW based schemes


 Dipole corrections
   LMONO  =      F    monopole corrections only (constant potential shift)
   LDIPOL =      F    correct potential (dipole corrections)
   IDIPOL =      0    1-x, 2-y, 3-z, 4-all directions 
   EPSILON=  1.0000000 bulk dielectric constant

 Exchange correlation treatment:
   GGA     =    --    GGA type
   LEXCH   =     8    internal setting for exchange type
   VOSKOWN=      0    Vosko Wilk Nusair interpolation
   LHFCALC =     F    Hartree Fock is set to
   LHFONE  =     F    Hartree Fock one center treatment
   AEXX    =    0.0000 exact exchange contribution

 Linear response parameters
   LEPSILON=     F    determine dielectric tensor
   LRPA    =     F    only Hartree local field effects (RPA)
   LNABLA  =     F    use nabla operator in PAW spheres
   LVEL    =     F    velocity operator in full k-point grid
   LINTERFAST=   F  fast interpolation
   KINTER  =     0    interpolate to denser k-point grid
   CSHIFT  =0.1000    complex shift for real part using Kramers Kronig
   OMEGAMAX=  -1.0    maximum frequency
   DEG_THRESHOLD= 0.2000000E-02 threshold for treating states as degnerate
   RTIME   =   -0.100 relaxation time in fs
  (WPLASMAI=    0.000 imaginary part of plasma frequency in eV, 0.658/RTIME)
   DFIELD  = 0.0000000 0.0000000 0.0000000 field for delta impulse in time
 
 Orbital magnetization related:
   ORBITALMAG=     F  switch on orbital magnetization
   LCHIMAG   =     F  perturbation theory with respect to B field
   DQ        =  0.001000  dq finite difference perturbation B field
   LLRAUG    =     F  two centre corrections for induced B field



--------------------------------------------------------------------------------------------------------


 Static calculation
 charge density and potential will be updated during run
 non-spin polarized calculation
 Variant of blocked Davidson
 Davidson routine will perform the subspace rotation
 perform sub-space diagonalisation
    after iterative eigenvector-optimisation
 modified Broyden-mixing scheme, WC =      100.0
 initial mixing is a Kerker type mixing with AMIX =  0.4000 and BMIX =      1.0000
 Hartree-type preconditioning will be used
 using additional bands           17
 reciprocal scheme for non local part
 use partial core corrections
 calculate Harris-corrections to forces 
   (improved forces if not selfconsistent)
 use gradient corrections 
 use of overlap-Matrix (Vanderbilt PP)
 Methfessel and Paxton  Order N= 2 SIGMA  =   0.01


--------------------------------------------------------------------------------------------------------


  energy-cutoff  :      370.00
  volume of cell :      135.11
      direct lattice vectors                 reciprocal lattice vectors
     0.000000000  1.957950000  1.957950000     0.170246091  0.170246091  0.340492181
     1.957950000 -1.957950000  0.000000000     0.340492181 -0.170246091  0.170246091
    11.747700000 11.747700000-11.747700000     0.028374348  0.028374348 -0.028374348

  length of vectors
     2.768959444  2.768959444 20.347613272     0.417016053  0.417016053  0.049145813


 
 k-points in units of 2pi/SCALE and weight: read from INCAR                         
   0.00000000  0.00000000  0.00000000       0.000
   0.00567487  0.00567487  0.01134974       0.002
   0.01134974  0.01134974  0.02269948       0.002
   0.01702461  0.01702461  0.03404922       0.002
   0.02269948  0.02269948  0.04539896       0.002
   0.02837435  0.02837435  0.05674870       0.002
   0.03404922  0.03404922  0.06809844       0.002
   0.03972409  0.03972409  0.07944818       0.002
   0.04539896  0.04539896  0.09079792       0.002
   0.05107383  0.05107383  0.10214765       0.002
   0.05674870  0.05674870  0.11349739       0.002
   0.06242357  0.06242357  0.12484713       0.002
   0.06809844  0.06809844  0.13619687       0.002
   0.07377331  0.07377331  0.14754661       0.002
   0.07944818  0.07944818  0.15889635       0.002
   0.08512305  0.08512305  0.17024609       0.001
   0.01702461  0.00000000  0.01702461       0.002
   0.02269948  0.00567487  0.02837435       0.003
   0.02837435  0.01134974  0.03972409       0.003
   0.03404922  0.01702461  0.05107383       0.003
   0.03972409  0.02269948  0.06242357       0.003
   0.04539896  0.02837435  0.07377331       0.003
   0.05107383  0.03404922  0.08512305       0.003
   0.05674870  0.03972409  0.09647278       0.003
   0.06242357  0.04539896  0.10782252       0.003
   0.06809844  0.05107383  0.11917226       0.003
   0.07377331  0.05674870  0.13052200       0.003
   0.07944818  0.06242357  0.14187174       0.003
   0.08512305  0.06809844  0.15322148       0.003
   0.09079792  0.07377331  0.16457122       0.003
   0.03404922  0.00000000  0.03404922       0.002
   0.03972409  0.00567487  0.04539896       0.003
   0.04539896  0.01134974  0.05674870       0.003
   0.05107383  0.01702461  0.06809844       0.003
   0.05674870  0.02269948  0.07944818       0.003
   0.06242357  0.02837435  0.09079792       0.003
   0.06809844  0.03404922  0.10214765       0.003
   0.07377331  0.03972409  0.11349739       0.003
   0.07944818  0.04539896  0.12484713       0.003
   0.08512305  0.05107383  0.13619687       0.003
   0.09079792  0.05674870  0.14754661       0.003
   0.09647278  0.06242357  0.15889635       0.003
   0.10214765  0.06809844  0.17024609       0.002
   0.05107383 -0.00000000  0.05107383       0.002
   0.05674870  0.00567487  0.06242357       0.003
   0.06242357  0.01134974  0.07377331       0.003
   0.06809844  0.01702461  0.08512305       0.003
   0.07377331  0.02269948  0.09647278       0.003
   0.07944818  0.02837435  0.10782252       0.003
   0.08512305  0.03404922  0.11917226       0.003
   0.09079792  0.03972409  0.13052200       0.003
   0.09647278  0.04539896  0.14187174       0.003
   0.10214765  0.05107383  0.15322148       0.003
   0.10782252  0.05674870  0.16457122       0.003
   0.06809844  0.00000000  0.06809844       0.002
   0.07377331  0.00567487  0.07944818       0.003
   0.07944818  0.01134974  0.09079792       0.003
   0.08512305  0.01702461  0.10214765       0.003
   0.09079792  0.02269948  0.11349739       0.003
   0.09647278  0.02837435  0.12484713       0.003
   0.10214765  0.03404922  0.13619687       0.003
   0.10782252  0.03972409  0.14754661       0.003
   0.11349739  0.04539896  0.15889635       0.003
   0.11917226  0.05107383  0.17024609       0.002
   0.08512305  0.00000000  0.08512305       0.002
   0.09079792  0.00567487  0.09647278       0.003
   0.09647278  0.01134974  0.10782252       0.003
   0.10214765  0.01702461  0.11917226       0.003
   0.10782252  0.02269948  0.13052200       0.003
   0.11349739  0.02837435  0.14187174       0.003
   0.11917226  0.03404922  0.15322148       0.003
   0.12484713  0.03972409  0.16457122       0.003
   0.10214765 -0.00000000  0.10214765       0.002
   0.10782252  0.00567487  0.11349739       0.003
   0.11349739  0.01134974  0.12484713       0.003
   0.11917226  0.01702461  0.13619687       0.003
   0.12484713  0.02269948  0.14754661       0.003
   0.13052200  0.02837435  0.15889635       0.003
   0.13619687  0.03404922  0.17024609       0.002
   0.11917226 -0.00000000  0.11917226       0.002
   0.12484713  0.00567487  0.13052200       0.003
   0.13052200  0.01134974  0.14187174       0.003
   0.13619687  0.01702461  0.15322148       0.003
   0.14187174  0.02269948  0.16457122       0.003
   0.13619687  0.00000000  0.13619687       0.002
   0.14187174  0.00567487  0.14754661       0.003
   0.14754661  0.01134974  0.15889635       0.003
   0.15322148  0.01702461  0.17024609       0.002
   0.15322148 -0.00000000  0.15322148       0.002
   0.15889635  0.00567487  0.16457122       0.003
   0.17024609  0.00000000  0.17024609       0.001
   0.00709359  0.00709359 -0.00709359       0.001
   0.01276846  0.01276846  0.00425615       0.002
   0.01844333  0.01844333  0.01560589       0.002
   0.02411820  0.02411820  0.02695563       0.002
   0.02979307  0.02979307  0.03830537       0.002
   0.03546794  0.03546794  0.04965511       0.002
   0.04114281  0.04114281  0.06100485       0.002
   0.04681767  0.04681767  0.07235459       0.002
   0.05249254  0.05249254  0.08370433       0.002
   0.05816741  0.05816741  0.09505407       0.002
   0.06384228  0.06384228  0.10640381       0.002
   0.06951715  0.06951715  0.11775355       0.002
   0.07519202  0.07519202  0.12910329       0.002
   0.08086689  0.08086689  0.14045302       0.002
   0.08654176  0.08654176  0.15180276       0.002
   0.09221663  0.09221663  0.16315250       0.002
  -0.07235459 -0.07235459 -0.16598994       0.002
  -0.06667972 -0.06667972 -0.15464020       0.002
  -0.06100485 -0.06100485 -0.14329046       0.002
  -0.05532998 -0.05532998 -0.13194072       0.002
  -0.04965511 -0.04965511 -0.12059098       0.002
  -0.04398024 -0.04398024 -0.10924124       0.002
  -0.03830537 -0.03830537 -0.09789150       0.002
  -0.03263050 -0.03263050 -0.08654176       0.002
  -0.02695563 -0.02695563 -0.07519202       0.002
  -0.02128076 -0.02128076 -0.06384228       0.002
  -0.01560589 -0.01560589 -0.05249254       0.002
  -0.00993102 -0.00993102 -0.04114281       0.002
  -0.00425615 -0.00425615 -0.02979307       0.002
   0.00141872  0.00141872 -0.01844333       0.002
   0.02411820  0.00709359  0.00993102       0.003
   0.02979307  0.01276846  0.02128076       0.003
   0.03546794  0.01844333  0.03263050       0.003
   0.04114281  0.02411820  0.04398024       0.003
   0.04681767  0.02979307  0.05532998       0.003
   0.05249254  0.03546794  0.06667972       0.003
   0.05816741  0.04114281  0.07802946       0.003
   0.06384228  0.04681767  0.08937920       0.003
   0.06951715  0.05249254  0.10072894       0.003
   0.07519202  0.05816741  0.11207868       0.003
   0.08086689  0.06384228  0.12342842       0.003
   0.08654176  0.06951715  0.13477816       0.003
   0.09221663  0.07519202  0.14612789       0.003
   0.09789150  0.08086689  0.15747763       0.003
   0.10356637  0.08654176  0.16882737       0.003
  -0.06100485 -0.07802946 -0.16031507       0.003
  -0.05532998 -0.07235459 -0.14896533       0.003
  -0.04965511 -0.06667972 -0.13761559       0.003
  -0.04398024 -0.06100485 -0.12626585       0.003
  -0.03830537 -0.05532998 -0.11491611       0.003
  -0.03263050 -0.04965511 -0.10356637       0.003
  -0.02695563 -0.04398024 -0.09221663       0.003
  -0.02128076 -0.03830537 -0.08086689       0.003
  -0.01560589 -0.03263050 -0.06951715       0.003
  -0.00993102 -0.02695563 -0.05816741       0.003
  -0.00425615 -0.02128076 -0.04681767       0.003
   0.00141872 -0.01560589 -0.03546794       0.003
   0.04114281  0.00709359  0.02695563       0.003
   0.04681767  0.01276846  0.03830537       0.003
   0.05249254  0.01844333  0.04965511       0.003
   0.05816741  0.02411820  0.06100485       0.003
   0.06384228  0.02979307  0.07235459       0.003
   0.06951715  0.03546794  0.08370433       0.003
   0.07519202  0.04114281  0.09505407       0.003
   0.08086689  0.04681767  0.10640381       0.003
   0.08654176  0.05249254  0.11775355       0.003
   0.09221663  0.05816741  0.12910329       0.003
   0.09789150  0.06384228  0.14045302       0.003
   0.10356637  0.06951715  0.15180276       0.003
   0.10924124  0.07519202  0.16315250       0.003
   0.11491611  0.08086689  0.17450224       0.003
  -0.04965511 -0.08370433 -0.15464020       0.003
  -0.04398024 -0.07802946 -0.14329046       0.003
  -0.03830537 -0.07235459 -0.13194072       0.003
  -0.03263050 -0.06667972 -0.12059098       0.003
  -0.02695563 -0.06100485 -0.10924124       0.003
  -0.02128076 -0.05532998 -0.09789150       0.003
  -0.01560589 -0.04965511 -0.08654176       0.003
  -0.00993102 -0.04398024 -0.07519202       0.003
  -0.00425615 -0.03830537 -0.06384228       0.003
   0.00141872 -0.03263050 -0.05249254       0.003
   0.05816741  0.00709359  0.04398024       0.003
   0.06384228  0.01276846  0.05532998       0.003
   0.06951715  0.01844333  0.06667972       0.003
   0.07519202  0.02411820  0.07802946       0.003
   0.08086689  0.02979307  0.08937920       0.003
   0.08654176  0.03546794  0.10072894       0.003
   0.09221663  0.04114281  0.11207868       0.003
   0.09789150  0.04681767  0.12342842       0.003
   0.10356637  0.05249254  0.13477816       0.003
   0.10924124  0.05816741  0.14612789       0.003
   0.11491611  0.06384228  0.15747763       0.003
   0.12059098  0.06951715  0.16882737       0.003
   0.12626585  0.07519202  0.18017711       0.003
  -0.03830537 -0.08937920 -0.14896533       0.003
  -0.03263050 -0.08370433 -0.13761559       0.003
  -0.02695563 -0.07802946 -0.12626585       0.003
  -0.02128076 -0.07235459 -0.11491611       0.003
  -0.01560589 -0.06667972 -0.10356637       0.003
  -0.00993102 -0.06100485 -0.09221663       0.003
  -0.00425615 -0.05532998 -0.08086689       0.003
   0.00141872 -0.04965511 -0.06951715       0.003
   0.07519202  0.00709359  0.06100485       0.003
   0.08086689  0.01276846  0.07235459       0.003
   0.08654176  0.01844333  0.08370433       0.003
   0.09221663  0.02411820  0.09505407       0.003
   0.09789150  0.02979307  0.10640381       0.003
   0.10356637  0.03546794  0.11775355       0.003
   0.10924124  0.04114281  0.12910329       0.003
   0.11491611  0.04681767  0.14045302       0.003
   0.12059098  0.05249254  0.15180276       0.003
   0.12626585  0.05816741  0.16315250       0.003
   0.13194072  0.06384228  0.17450224       0.003
   0.13761559  0.06951715  0.18585198       0.003
  -0.02695563 -0.09505407 -0.14329046       0.003
  -0.02128076 -0.08937920 -0.13194072       0.003
  -0.01560589 -0.08370433 -0.12059098       0.003
  -0.00993102 -0.07802946 -0.10924124       0.003
  -0.00425615 -0.07235459 -0.09789150       0.003
   0.00141872 -0.06667972 -0.08654176       0.003
   0.09221663  0.00709359  0.07802946       0.003
   0.09789150  0.01276846  0.08937920       0.003
   0.10356637  0.01844333  0.10072894       0.003
   0.10924124  0.02411820  0.11207868       0.003
   0.11491611  0.02979307  0.12342842       0.003
   0.12059098  0.03546794  0.13477816       0.003
   0.12626585  0.04114281  0.14612789       0.003
   0.13194072  0.04681767  0.15747763       0.003
   0.13761559  0.05249254  0.16882737       0.003
   0.14329046  0.05816741  0.18017711       0.003
   0.14896533  0.06384228  0.19152685       0.003
  -0.01560589 -0.10072894 -0.13761559       0.003
  -0.00993102 -0.09505407 -0.12626585       0.003
  -0.00425615 -0.08937920 -0.11491611       0.003
   0.00141872 -0.08370433 -0.10356637       0.003
   0.10924124  0.00709359  0.09505407       0.003
   0.11491611  0.01276846  0.10640381       0.003
   0.12059098  0.01844333  0.11775355       0.003
   0.12626585  0.02411820  0.12910329       0.003
   0.13194072  0.02979307  0.14045302       0.003
   0.13761559  0.03546794  0.15180276       0.003
   0.14329046  0.04114281  0.16315250       0.003
   0.14896533  0.04681767  0.17450224       0.003
   0.15464020  0.05249254  0.18585198       0.003
   0.16031507  0.05816741  0.19720172       0.003
  -0.00425615 -0.10640381 -0.13194072       0.003
   0.00141872 -0.10072894 -0.12059098       0.003
   0.12626585  0.00709359  0.11207868       0.003
   0.13194072  0.01276846  0.12342842       0.003
   0.13761559  0.01844333  0.13477816       0.003
   0.14329046  0.02411820  0.14612789       0.003
   0.14896533  0.02979307  0.15747763       0.003
   0.15464020  0.03546794  0.16882737       0.003
   0.16031507  0.04114281  0.18017711       0.003
   0.16598994  0.04681767  0.19152685       0.003
   0.17166481  0.05249254  0.20287659       0.003
   0.14329046  0.00709359  0.12910329       0.003
   0.14896533  0.01276846  0.14045302       0.003
   0.15464020  0.01844333  0.15180276       0.003
   0.16031507  0.02411820  0.16315250       0.003
   0.16598994  0.02979307  0.17450224       0.003
   0.17166481  0.03546794  0.18585198       0.003
   0.16031507  0.00709359  0.14612789       0.003
   0.16598994  0.01276846  0.15747763       0.003
   0.17166481  0.01844333  0.16882737       0.003
   0.17733968  0.00709359  0.16315250       0.001
   0.01418717  0.01418717 -0.01418717       0.000
   0.01986204  0.01986204 -0.00283743       0.002
   0.02553691  0.02553691  0.00851230       0.002
   0.03121178  0.03121178  0.01986204       0.002
   0.03688665  0.03688665  0.03121178       0.002
   0.04256152  0.04256152  0.04256152       0.002
   0.04823639  0.04823639  0.05391126       0.002
   0.05391126  0.05391126  0.06526100       0.002
   0.05958613  0.05958613  0.07661074       0.002
   0.06526100  0.06526100  0.08796048       0.002
   0.07093587  0.07093587  0.09931022       0.002
   0.07661074  0.07661074  0.11065996       0.002
   0.08228561  0.08228561  0.12200970       0.002
   0.08796048  0.08796048  0.13335944       0.002
   0.09363535  0.09363535  0.14470918       0.002
   0.09931022  0.09931022  0.15605892       0.001
   0.03121178  0.01418717  0.00283743       0.002
   0.03688665  0.01986204  0.01418717       0.003
   0.04256152  0.02553691  0.02553691       0.003
   0.04823639  0.03121178  0.03688665       0.003
   0.05391126  0.03688665  0.04823639       0.003
   0.05958613  0.04256152  0.05958613       0.003
   0.06526100  0.04823639  0.07093587       0.003
   0.07093587  0.05391126  0.08228561       0.003
   0.07661074  0.05958613  0.09363535       0.003
   0.08228561  0.06526100  0.10498509       0.003
   0.08796048  0.07093587  0.11633483       0.003
   0.09363535  0.07661074  0.12768457       0.003
   0.09931022  0.08228561  0.13903431       0.003
   0.10498509  0.08796048  0.15038405       0.003
   0.04823639  0.01418717  0.01986204       0.002
   0.05391126  0.01986204  0.03121178       0.003
   0.05958613  0.02553691  0.04256152       0.003
   0.06526100  0.03121178  0.05391126       0.003
   0.07093587  0.03688665  0.06526100       0.003
   0.07661074  0.04256152  0.07661074       0.003
   0.08228561  0.04823639  0.08796048       0.003
   0.08796048  0.05391126  0.09931022       0.003
   0.09363535  0.05958613  0.11065996       0.003
   0.09931022  0.06526100  0.12200970       0.003
   0.10498509  0.07093587  0.13335944       0.003
   0.11065996  0.07661074  0.14470918       0.003
   0.11633483  0.08228561  0.15605892       0.002
   0.06526100  0.01418717  0.03688665       0.002
   0.07093587  0.01986204  0.04823639       0.003
   0.07661074  0.02553691  0.05958613       0.003
   0.08228561  0.03121178  0.07093587       0.003
   0.08796048  0.03688665  0.08228561       0.003
   0.09363535  0.04256152  0.09363535       0.003
   0.09931022  0.04823639  0.10498509       0.003
   0.10498509  0.05391126  0.11633483       0.003
   0.11065996  0.05958613  0.12768457       0.003
   0.11633483  0.06526100  0.13903431       0.003
   0.12200970  0.07093587  0.15038405       0.003
   0.08228561  0.01418717  0.05391126       0.002
   0.08796048  0.01986204  0.06526100       0.003
   0.09363535  0.02553691  0.07661074       0.003
   0.09931022  0.03121178  0.08796048       0.003
   0.10498509  0.03688665  0.09931022       0.003
   0.11065996  0.04256152  0.11065996       0.003
   0.11633483  0.04823639  0.12200970       0.003
   0.12200970  0.05391126  0.13335944       0.003
   0.12768457  0.05958613  0.14470918       0.003
   0.13335944  0.06526100  0.15605892       0.002
   0.09931022  0.01418717  0.07093587       0.002
   0.10498509  0.01986204  0.08228561       0.003
   0.11065996  0.02553691  0.09363535       0.003
   0.11633483  0.03121178  0.10498509       0.003
   0.12200970  0.03688665  0.11633483       0.003
   0.12768457  0.04256152  0.12768457       0.003
   0.13335944  0.04823639  0.13903431       0.003
   0.13903431  0.05391126  0.15038405       0.003
   0.11633483  0.01418717  0.08796048       0.002
   0.12200970  0.01986204  0.09931022       0.003
   0.12768457  0.02553691  0.11065996       0.003
   0.13335944  0.03121178  0.12200970       0.003
   0.13903431  0.03688665  0.13335944       0.003
   0.14470918  0.04256152  0.14470918       0.003
   0.15038405  0.04823639  0.15605892       0.002
   0.13335944  0.01418717  0.10498509       0.002
   0.13903431  0.01986204  0.11633483       0.003
   0.14470918  0.02553691  0.12768457       0.003
   0.15038405  0.03121178  0.13903431       0.003
   0.15605892  0.03688665  0.15038405       0.003
   0.15038405  0.01418717  0.12200970       0.002
   0.15605892  0.01986204  0.13335944       0.003
   0.16173379  0.02553691  0.14470918       0.003
   0.16740866  0.03121178  0.15605892       0.002
   0.16740866  0.01418717  0.13903431       0.002
   0.17308353  0.01986204  0.15038405       0.003
   0.18443326  0.01418717  0.15605892       0.001
 
 k-points in reciprocal lattice and weights: read from INCAR                         
   0.00000000  0.00000000  0.00000000       0.000
   0.03333333 -0.00000000  0.00000000       0.002
   0.06666667 -0.00000000  0.00000000       0.002
   0.10000000 -0.00000000 -0.00000000       0.002
   0.13333333 -0.00000000  0.00000000       0.002
   0.16666667 -0.00000000  0.00000000       0.002
   0.20000000  0.00000000 -0.00000000       0.002
   0.23333333 -0.00000000 -0.00000000       0.002
   0.26666667 -0.00000000  0.00000000       0.002
   0.30000000  0.00000000  0.00000000       0.002
   0.33333333  0.00000000  0.00000000       0.002
   0.36666667 -0.00000000 -0.00000000       0.002
   0.40000000  0.00000000 -0.00000000       0.002
   0.43333333 -0.00000000 -0.00000000       0.002
   0.46666667 -0.00000000 -0.00000000       0.002
   0.50000000 -0.00000000  0.00000000       0.001
   0.03333333  0.03333333 -0.00000000       0.002
   0.06666667  0.03333333  0.00000000       0.003
   0.10000000  0.03333333 -0.00000000       0.003
   0.13333333  0.03333333  0.00000000       0.003
   0.16666667  0.03333333 -0.00000000       0.003
   0.20000000  0.03333333 -0.00000000       0.003
   0.23333333  0.03333333  0.00000000       0.003
   0.26666667  0.03333333  0.00000000       0.003
   0.30000000  0.03333333  0.00000000       0.003
   0.33333333  0.03333333  0.00000000       0.003
   0.36666667  0.03333333 -0.00000000       0.003
   0.40000000  0.03333333 -0.00000000       0.003
   0.43333333  0.03333333 -0.00000000       0.003
   0.46666667  0.03333333 -0.00000000       0.003
   0.06666667  0.06666667 -0.00000000       0.002
   0.10000000  0.06666667  0.00000000       0.003
   0.13333333  0.06666667  0.00000000       0.003
   0.16666667  0.06666667 -0.00000000       0.003
   0.20000000  0.06666667 -0.00000000       0.003
   0.23333333  0.06666667 -0.00000000       0.003
   0.26666667  0.06666667  0.00000000       0.003
   0.30000000  0.06666667  0.00000000       0.003
   0.33333333  0.06666667 -0.00000000       0.003
   0.36666667  0.06666667  0.00000000       0.003
   0.40000000  0.06666667 -0.00000000       0.003
   0.43333333  0.06666667 -0.00000000       0.003
   0.46666667  0.06666667  0.00000000       0.002
   0.10000000  0.10000000 -0.00000000       0.002
   0.13333333  0.10000000  0.00000000       0.003
   0.16666667  0.10000000  0.00000000       0.003
   0.20000000  0.10000000  0.00000000       0.003
   0.23333333  0.10000000  0.00000000       0.003
   0.26666667  0.10000000  0.00000000       0.003
   0.30000000  0.10000000  0.00000000       0.003
   0.33333333  0.10000000  0.00000000       0.003
   0.36666667  0.10000000 -0.00000000       0.003
   0.40000000  0.10000000  0.00000000       0.003
   0.43333333  0.10000000  0.00000000       0.003
   0.13333333  0.13333333 -0.00000000       0.002
   0.16666667  0.13333333  0.00000000       0.003
   0.20000000  0.13333333  0.00000000       0.003
   0.23333333  0.13333333  0.00000000       0.003
   0.26666667  0.13333333  0.00000000       0.003
   0.30000000  0.13333333  0.00000000       0.003
   0.33333333  0.13333333  0.00000000       0.003
   0.36666667  0.13333333  0.00000000       0.003
   0.40000000  0.13333333 -0.00000000       0.003
   0.43333333  0.13333333 -0.00000000       0.002
   0.16666667  0.16666667  0.00000000       0.002
   0.20000000  0.16666667  0.00000000       0.003
   0.23333333  0.16666667  0.00000000       0.003
   0.26666667  0.16666667  0.00000000       0.003
   0.30000000  0.16666667  0.00000000       0.003
   0.33333333  0.16666667 -0.00000000       0.003
   0.36666667  0.16666667  0.00000000       0.003
   0.40000000  0.16666667  0.00000000       0.003
   0.20000000  0.20000000  0.00000000       0.002
   0.23333333  0.20000000 -0.00000000       0.003
   0.26666667  0.20000000  0.00000000       0.003
   0.30000000  0.20000000  0.00000000       0.003
   0.33333333  0.20000000  0.00000000       0.003
   0.36666667  0.20000000 -0.00000000       0.003
   0.40000000  0.20000000  0.00000000       0.002
   0.23333333  0.23333333  0.00000000       0.002
   0.26666667  0.23333333  0.00000000       0.003
   0.30000000  0.23333333 -0.00000000       0.003
   0.33333333  0.23333333  0.00000000       0.003
   0.36666667  0.23333333  0.00000000       0.003
   0.26666667  0.26666667  0.00000000       0.002
   0.30000000  0.26666667  0.00000000       0.003
   0.33333333  0.26666667  0.00000000       0.003
   0.36666667  0.26666667 -0.00000000       0.002
   0.30000000  0.30000000 -0.00000000       0.002
   0.33333333  0.30000000 -0.00000000       0.003
   0.33333333  0.33333333 -0.00000000       0.001
  -0.00000000  0.00000000  0.25000000       0.001
   0.03333333 -0.00000000  0.25000000       0.002
   0.06666667  0.00000000  0.25000000       0.002
   0.10000000 -0.00000000  0.25000000       0.002
   0.13333333  0.00000000  0.25000000       0.002
   0.16666667 -0.00000000  0.25000000       0.002
   0.20000000 -0.00000000  0.25000000       0.002
   0.23333333 -0.00000000  0.25000000       0.002
   0.26666667 -0.00000000  0.25000000       0.002
   0.30000000 -0.00000000  0.25000000       0.002
   0.33333333  0.00000000  0.25000000       0.002
   0.36666667 -0.00000000  0.25000000       0.002
   0.40000000  0.00000000  0.25000000       0.002
   0.43333333 -0.00000000  0.25000000       0.002
   0.46666667 -0.00000000  0.25000000       0.002
   0.50000000 -0.00000000  0.25000000       0.002
  -0.46666667  0.00000000  0.25000000       0.002
  -0.43333333  0.00000000  0.25000000       0.002
  -0.40000000  0.00000000  0.25000000       0.002
  -0.36666667 -0.00000000  0.25000000       0.002
  -0.33333333  0.00000000  0.25000000       0.002
  -0.30000000 -0.00000000  0.25000000       0.002
  -0.26666667  0.00000000  0.25000000       0.002
  -0.23333333  0.00000000  0.25000000       0.002
  -0.20000000  0.00000000  0.25000000       0.002
  -0.16666667 -0.00000000  0.25000000       0.002
  -0.13333333  0.00000000  0.25000000       0.002
  -0.10000000  0.00000000  0.25000000       0.002
  -0.06666667  0.00000000  0.25000000       0.002
  -0.03333333  0.00000000  0.25000000       0.002
   0.03333333  0.03333333  0.25000000       0.003
   0.06666667  0.03333333  0.25000000       0.003
   0.10000000  0.03333333  0.25000000       0.003
   0.13333333  0.03333333  0.25000000       0.003
   0.16666667  0.03333333  0.25000000       0.003
   0.20000000  0.03333333  0.25000000       0.003
   0.23333333  0.03333333  0.25000000       0.003
   0.26666667  0.03333333  0.25000000       0.003
   0.30000000  0.03333333  0.25000000       0.003
   0.33333333  0.03333333  0.25000000       0.003
   0.36666667  0.03333333  0.25000000       0.003
   0.40000000  0.03333333  0.25000000       0.003
   0.43333333  0.03333333  0.25000000       0.003
   0.46666667  0.03333333  0.25000000       0.003
   0.50000000  0.03333333  0.25000000       0.003
  -0.46666667  0.03333333  0.25000000       0.003
[...]
      6     -41.6763      2.00000
      7     -41.6617      2.00000
      8     -41.6467      2.00000
      9     -41.6293      2.00000
     10     -41.6207      2.00000
     11     -41.6101      2.00000
     12     -41.5709      2.00000
     13     -41.5703      2.00000
     14     -41.5487      2.00000
     15     -41.5416      2.00000
     16     -41.5102      2.00000
     17     -41.5095      2.00000
     18     -41.4605      2.00000
     19     -41.4449      2.00000
     20     -41.4395      2.00000
     21     -41.4272      2.00000
     22     -41.4226      2.00000
     23     -41.4199      2.00000
     24     -41.3674      2.00000
     25     -41.3671      2.00000
     26     -41.1515      2.00000
     27     -41.1514      2.00000
     28       5.2191      2.00000
     29       5.2229      2.00000
     30       5.4601      2.00000
     31       5.4627      2.00000
     32       5.6000      2.00000
     33       5.7176      2.00000
     34       5.7212      2.00000
     35       6.0914      2.00000
     36       6.1300      2.00000
     37       6.1348      2.00000
     38       6.1976      2.00000
     39       6.2034      2.00000
     40       6.2406      2.00000
     41       6.4868      2.00000
     42       6.5324      2.00000
     43       6.9129      2.00000
     44       6.9906      2.00000
     45       7.0311      2.00000
     46       7.1842      2.00000
     47       7.3066      2.00000
     48       7.3703      2.00000
     49       7.4570      2.00000
     50       7.5254      2.00000
     51       7.6412      2.00000
     52       7.8441      2.00000
     53       8.4052      2.00000
     54       8.5830      2.00000
     55       8.9688      2.00000
     56       9.0159      2.00000
     57       9.1222      2.00000
     58       9.2239      2.00000
     59       9.3017      2.00000
     60       9.3412      2.00000
     61       9.3867      2.00000
     62       9.5187      2.00000
     63       9.5542      2.00000
     64      10.0478      2.00000
     65      10.3310      2.00000
     66      10.4757      2.00000
     67      10.8868      2.00000
     68      10.9564      2.00000
     69      11.0246      2.00000
     70      11.0279      2.00000
     71      11.0674      2.00000
     72      11.3224      0.00000
     73      14.0986      0.00000
     74      14.6633      0.00000
     75      15.2027      0.00000
     76      15.4918      0.00000
     77      15.7845      0.00000
     78      16.3776      0.00000
     79      16.4398      0.00000
     80      16.4743      0.00000
     81      16.9501      0.00000
     82      17.1641      0.00000
     83      17.2674      0.00000
     84      17.5143      0.00000
     85      17.8711      0.00000
     86      18.2472      0.00000
     87      19.0145      0.00000
     88      19.1204      0.00000
     89      19.8525      0.00000
     90      19.8729      0.00000

 k-point   347 :       0.3333    0.3000    0.5000
  band No.  band energies     occupation 
      1     -58.0757      2.00000
      2     -58.0635      2.00000
      3     -58.0594      2.00000
      4     -41.6945      2.00000
      5     -41.6799      2.00000
      6     -41.6692      2.00000
      7     -41.6626      2.00000
      8     -41.6489      2.00000
      9     -41.6332      2.00000
     10     -41.6193      2.00000
     11     -41.6023      2.00000
     12     -41.5884      2.00000
     13     -41.5827      2.00000
     14     -41.5626      2.00000
     15     -41.5515      2.00000
     16     -41.5059      2.00000
     17     -41.5051      2.00000
     18     -41.4538      2.00000
     19     -41.4494      2.00000
     20     -41.4430      2.00000
     21     -41.4354      2.00000
     22     -41.4241      2.00000
     23     -41.4220      2.00000
     24     -41.3720      2.00000
     25     -41.3718      2.00000
     26     -41.1514      2.00000
     27     -41.1512      2.00000
     28       5.2423      2.00000
     29       5.3651      2.00000
     30       5.4978      2.00000
     31       5.5055      2.00000
     32       5.5843      2.00000
     33       5.7634      2.00000
     34       5.8349      2.00000
     35       5.9987      2.00000
     36       6.0910      2.00000
     37       6.1409      2.00000
     38       6.1850      2.00000
     39       6.2494      2.00000
     40       6.2885      2.00000
     41       6.4676      2.00000
     42       6.4967      2.00000
     43       6.9056      2.00000
     44       7.1073      2.00000
     45       7.1269      2.00000
     46       7.2223      2.00000
     47       7.3116      2.00000
     48       7.3644      2.00000
     49       7.3712      2.00000
     50       7.4584      2.00000
     51       7.6703      2.00000
     52       7.7669      2.00000
     53       8.4263      2.00000
     54       8.5725      2.00000
     55       8.9677      2.00000
     56       9.0998      2.00000
     57       9.1748      2.00000
     58       9.2425      2.00000
     59       9.2738      2.00000
     60       9.3555      2.00000
     61       9.4297      2.00000
     62       9.4871      2.00000
     63       9.5605      2.00000
     64      10.0684      2.00000
     65      10.5317      2.00000
     66      10.5799      2.00000
     67      10.7743      2.00000
     68      10.8269      2.00000
     69      10.9310      2.00000
     70      10.9780      2.00000
     71      11.0512      2.00000
     72      11.1597      2.00000
     73      14.5976      0.00000
     74      15.1930      0.00000
     75      15.2813      0.00000
     76      15.7770      0.00000
     77      15.8461      0.00000
     78      16.1866      0.00000
     79      16.2466      0.00000
     80      16.3056      0.00000
     81      16.7570      0.00000
     82      16.9041      0.00000
     83      17.4662      0.00000
     84      17.8561      0.00000
     85      17.9602      0.00000
     86      18.1284      0.00000
     87      18.7684      0.00000
     88      19.0190      0.00000
     89      19.6786      0.00000
     90      19.9381      0.00000

 k-point   348 :       0.3333    0.3333    0.5000
  band No.  band energies     occupation 
      1     -58.0769      2.00000
      2     -58.0615      2.00000
      3     -58.0614      2.00000
      4     -41.6789      2.00000
      5     -41.6789      2.00000
      6     -41.6732      2.00000
      7     -41.6511      2.00000
      8     -41.6511      2.00000
      9     -41.6417      2.00000
     10     -41.6057      2.00000
     11     -41.6051      2.00000
     12     -41.6051      2.00000
     13     -41.5768      2.00000
     14     -41.5702      2.00000
     15     -41.5702      2.00000
     16     -41.5008      2.00000
     17     -41.5008      2.00000
     18     -41.4555      2.00000
     19     -41.4496      2.00000
     20     -41.4423      2.00000
     21     -41.4423      2.00000
     22     -41.4261      2.00000
     23     -41.4221      2.00000
     24     -41.3746      2.00000
     25     -41.3746      2.00000
     26     -41.1514      2.00000
     27     -41.1514      2.00000
     28       5.3975      2.00000
     29       5.4010      2.00000
     30       5.4010      2.00000
     31       5.6185      2.00000
     32       5.6566      2.00000
     33       5.6566      2.00000
     34       5.9729      2.00000
     35       5.9729      2.00000
     36       6.0009      2.00000
     37       6.1850      2.00000
     38       6.2216      2.00000
     39       6.2216      2.00000
     40       6.3001      2.00000
     41       6.4674      2.00000
     42       6.4674      2.00000
     43       6.9783      2.00000
     44       7.1856      2.00000
     45       7.2004      2.00000
     46       7.2004      2.00000
     47       7.3235      2.00000
     48       7.3235      2.00000
     49       7.4332      2.00000
     50       7.4712      2.00000
     51       7.4712      2.00000
     52       7.6242      2.00000
     53       8.4969      2.00000
     54       8.4969      2.00000
     55       9.1510      2.00000
     56       9.1510      2.00000
     57       9.1548      2.00000
     58       9.2601      2.00000
     59       9.2601      2.00000
     60       9.3232      2.00000
     61       9.3687      2.00000
     62       9.4794      2.00000
     63       9.4794      2.00000
     64      10.0664      2.00000
     65      10.6444      2.00000
     66      10.6444      2.00000
     67      10.7512      2.00000
     68      10.7681      2.00000
     69      10.7681      2.00000
     70      11.0008      2.00000
     71      11.0551      2.00000
     72      11.0551      2.00000
     73      15.0383      0.00000
     74      15.0383      0.00000
     75      15.7193      0.00000
     76      15.7193      0.00000
     77      15.7388      0.00000
     78      15.8236      0.00000
     79      16.5398      0.00000
     80      16.5398      0.00000
     81      16.9094      0.00000
     82      16.9095      0.00000
     83      16.9306      0.00000
     84      17.3130      0.00000
     85      18.6566      0.00000
     86      18.6566      0.00000
     87      18.9640      0.00000
     88      18.9640      0.00000
     89      19.1576      0.00000
     90      19.2615      0.00000


--------------------------------------------------------------------------------------------------------


 soft charge-density along one line, spin component           1
         0         1         2         3         4         5         6         7         8         9
 total charge-density along one line
 
 pseudopotential strength for first ion, spin component:           1
-63.872   0.002  -0.002   7.319  -0.002   0.002   0.000  -0.000
  0.002 -63.872   0.002  -0.002   7.319  -0.002   0.000   0.000
 -0.002   0.002 -63.872   0.002  -0.002   7.319   0.000   0.000
  7.319  -0.002   0.002   6.113  -0.000   0.000  -0.000   0.000
 -0.002   7.319  -0.002  -0.000   6.113  -0.000  -0.000  -0.000
  0.002  -0.002   7.319   0.000  -0.000   6.113  -0.000  -0.000
  0.000   0.000   0.000  -0.000  -0.000  -0.000  -3.240  -0.002
 -0.000   0.000   0.000   0.000  -0.000  -0.000  -0.002  -3.240
 -0.000  -0.000  -0.000   0.000   0.000   0.000   0.007   0.003
  0.000   0.000  -0.000  -0.000  -0.000   0.000  -0.002   0.002
 -0.000  -0.000   0.000   0.000   0.000  -0.000   0.000  -0.006
  0.000   0.000   0.000  -0.000  -0.000  -0.000  -3.874  -0.002
 -0.000   0.000   0.000   0.000  -0.000  -0.000  -0.002  -3.874
 -0.000  -0.000  -0.000   0.000   0.000   0.000   0.007   0.003
  0.000   0.000  -0.000  -0.000  -0.000   0.000  -0.002   0.002
 -0.000  -0.000   0.000   0.000   0.000  -0.000   0.000  -0.006
 -0.000   0.000  -0.000  -0.000   0.000  -0.000   0.001  -0.001
 -0.000   0.000  -0.000  -0.000   0.000  -0.000   0.003  -0.003
 total augmentation occupancy for first ion, spin component:           1
  1.999   0.000  -0.000  -0.011   0.000  -0.000   0.000   0.000   0.000   0.000   0.000   0.000   0.000   0.000   0.000   0.000
  0.000   1.999   0.000   0.000  -0.011   0.000   0.000   0.000   0.000   0.000   0.000   0.000   0.000   0.000   0.000   0.000
 -0.000   0.000   1.999  -0.000   0.000  -0.011   0.000   0.000   0.000   0.000   0.000   0.000   0.000   0.000   0.000   0.000
 -0.011   0.000  -0.000   0.087  -0.008   0.008   0.000   0.000   0.000   0.000   0.000   0.000   0.000   0.000   0.000   0.000
  0.000  -0.011   0.000  -0.008   0.087  -0.008   0.000   0.000   0.000   0.000   0.000   0.000   0.000   0.000   0.000   0.000
 -0.000   0.000  -0.011   0.008  -0.008   0.087   0.000   0.000   0.000   0.000   0.000   0.000   0.000   0.000   0.000   0.000
  0.000   0.000   0.000   0.000   0.000   0.000   3.779  -0.105  -0.058  -0.105  -0.000  -1.449   0.073   0.102   0.073   0.000
  0.000   0.000   0.000   0.000   0.000   0.000  -0.105   3.779  -0.029   0.105   0.050   0.073  -1.449   0.051  -0.073  -0.088
  0.000   0.000   0.000   0.000   0.000   0.000  -0.058  -0.029   3.877  -0.029   0.000   0.102   0.051  -1.397   0.051  -0.000
  0.000   0.000   0.000   0.000   0.000   0.000  -0.105   0.105  -0.029   3.779  -0.050   0.073  -0.073   0.051  -1.449   0.088
  0.000   0.000   0.000   0.000   0.000   0.000  -0.000   0.050   0.000  -0.050   3.877   0.000  -0.089  -0.000   0.089  -1.397
  0.000   0.000   0.000   0.000   0.000   0.000  -1.449   0.073   0.102   0.073   0.000   1.051  -0.052  -0.126  -0.052   0.000
  0.000   0.000   0.000   0.000   0.000   0.000   0.073  -1.449   0.051  -0.073  -0.089  -0.052   1.051  -0.063   0.052   0.109
  0.000   0.000   0.000   0.000   0.000   0.000   0.102   0.051  -1.397   0.051  -0.000  -0.126  -0.063   0.894  -0.063   0.000
  0.000   0.000   0.000   0.000   0.000   0.000   0.073  -0.073   0.051  -1.449   0.089  -0.052   0.052  -0.063   1.051  -0.109
  0.000   0.000   0.000   0.000   0.000   0.000   0.000  -0.088  -0.000   0.088  -1.397   0.000   0.109   0.000  -0.109   0.894
  0.000   0.000   0.000   0.000   0.000   0.000  -0.181   0.181  -0.000   0.181  -0.000   0.131  -0.131   0.000  -0.131   0.000
  0.000   0.000   0.000   0.000   0.000   0.000   0.013  -0.013   0.000  -0.013   0.000  -0.007   0.007  -0.000   0.007  -0.000


------------------------ aborting loop because EDIFF is reached ----------------------------------------


    CHARGE:  cpu time   10.4126: real time   10.4125
    FORLOC:  cpu time    0.0157: real time    0.0157
    FORNL :  cpu time   48.1273: real time   48.1266
    STRESS:  cpu time   37.5111: real time   37.5106
    FORCOR:  cpu time    0.1021: real time    0.1022
    FORHAR:  cpu time    0.0273: real time    0.0273
    MIXING:  cpu time    0.0069: real time    0.0070
    OFIELD:  cpu time    0.0001: real time    0.0001

  FORCE on cell =-STRESS in cart. coord.  units (eV):
  Direction    XX          YY          ZZ          XY          YZ          ZX
  --------------------------------------------------------------------------------------
  Alpha Z  1401.74018  1401.74018  1401.74018
  Ewald   -6560.00360 -6560.00360 -6560.00360   -13.57731    13.57731    13.57731
  Hartree  1468.24064  1468.24064  1468.24064   -18.15987    18.15987    18.15987
  E(xc)    -818.12856  -818.12851  -818.12856    -0.04756     0.04756     0.04752
  Local    1062.61841  1062.61904  1062.61841    27.64465   -27.64465   -27.64529
  n-local  -325.36324  -308.76708  -351.25812   -30.39280    -5.99322   -24.46304
  augment   772.84794   772.84751   772.84794     0.83116    -0.83117    -0.83079
  Kinetic  3006.70661  3027.86700  2978.61209   -29.58519    -6.47001   -33.29868
  Fock        0.00000     0.00000     0.00000     0.00000     0.00000     0.00000
  -------------------------------------------------------------------------------------
  Total       3.24751     3.24751     3.24751     0.10651    -0.10651    -0.10651
  in kB      38.51094    38.51094    38.51094     1.26303    -1.26303    -1.26303
  external pressure =       38.51 kB  Pullay stress =        0.00 kB


 VOLUME and BASIS-vectors are now :
 -----------------------------------------------------------------------------
  energy-cutoff  :      370.00
  volume of cell :      135.11
      direct lattice vectors                 reciprocal lattice vectors
     0.000000000  1.957950000  1.957950000     0.170246091  0.170246091  0.340492181
     1.957950000 -1.957950000  0.000000000     0.340492181 -0.170246091  0.170246091
    11.747700000 11.747700000-11.747700000     0.028374348  0.028374348 -0.028374348

  length of vectors
     2.768959444  2.768959444 20.347613272     0.417016053  0.417016053  0.049145813


 FORCES acting on ions
    electron-ion (+dipol)            ewald-force                    non-local-force                 convergence-correction
 -----------------------------------------------------------------------------------------------
   0.800E-13 -.291E-12 0.181E-12   0.227E-12 0.000E+00 0.455E-12   -.412E-23 0.841E-24 0.495E-23   0.154E-12 -.126E-12 0.263E-12
   -.983E+02 -.983E+02 0.983E+02   0.969E+02 0.969E+02 -.969E+02   0.283E+00 0.283E+00 -.283E+00   0.388E+00 0.388E+00 -.388E+00
   -.706E+02 -.706E+02 0.706E+02   0.699E+02 0.699E+02 -.699E+02   -.593E-01 -.593E-01 0.593E-01   0.815E+00 0.815E+00 -.815E+00
   -.427E+02 -.427E+02 0.427E+02   0.420E+02 0.420E+02 -.420E+02   0.160E-01 0.160E-01 -.160E-01   0.765E+00 0.765E+00 -.765E+00
   -.142E+02 -.142E+02 0.142E+02   0.140E+02 0.140E+02 -.140E+02   -.274E-02 -.274E-02 0.274E-02   0.248E+00 0.248E+00 -.248E+00
   0.142E+02 0.142E+02 -.142E+02   -.140E+02 -.140E+02 0.140E+02   0.274E-02 0.274E-02 -.274E-02   -.248E+00 -.248E+00 0.248E+00
   0.427E+02 0.427E+02 -.427E+02   -.420E+02 -.420E+02 0.420E+02   -.160E-01 -.160E-01 0.160E-01   -.765E+00 -.765E+00 0.765E+00
   0.706E+02 0.706E+02 -.706E+02   -.699E+02 -.699E+02 0.699E+02   0.593E-01 0.593E-01 -.593E-01   -.815E+00 -.815E+00 0.815E+00
   0.983E+02 0.983E+02 -.983E+02   -.969E+02 -.969E+02 0.969E+02   -.283E+00 -.283E+00 0.283E+00   -.388E+00 -.388E+00 0.388E+00
 -----------------------------------------------------------------------------------------------
   -.232E-10 -.195E-10 0.212E-10   0.227E-12 0.909E-12 -.142E-13   0.000E+00 0.000E+00 0.000E+00   -.234E-12 -.429E-12 0.471E-12
 
 
 POSITION                                       TOTAL-FORCE (eV/Angst)
 -----------------------------------------------------------------------------------
      0.00000      0.00000      0.00000        -0.000000     -0.000000     -0.000000
      1.95795      1.95795     -0.00000        -0.720345     -0.720345      0.720345
      3.91590      1.95795     -1.95795         0.078209      0.078209     -0.078209
      3.91590      3.91590     -3.91590         0.032717      0.032717     -0.032717
      5.87385      5.87385     -3.91590        -0.005623     -0.005623      0.005623
      7.83180      5.87385     -5.87385         0.005623      0.005623     -0.005623
      7.83180      7.83180     -7.83180        -0.032717     -0.032717      0.032717
      9.78975      9.78975     -7.83180        -0.078209     -0.078209      0.078209
     11.74770      9.78975     -9.78975         0.720345      0.720345     -0.720345
 -----------------------------------------------------------------------------------
    total drift:                               -0.000000     -0.000000      0.000000


--------------------------------------------------------------------------------------------------------



  FREE ENERGIE OF THE ION-ELECTRON SYSTEM (eV)
  ---------------------------------------------------
  free  energy   TOTEN  =       -52.42360623 eV

  energy  without entropy=      -52.42361075  energy(sigma->0) =      -52.42360736
 


--------------------------------------------------------------------------------------------------------


    POTLOK:  cpu time    0.1166: real time    0.1166


--------------------------------------------------------------------------------------------------------


 writing wavefunctions
     LOOP+:  cpu time 4569.8164: real time 4569.9065
    4ORBIT:  cpu time    0.0000: real time    0.0000

 total amount of memory used by VASP MPI-rank0   507416. kBytes
=======================================================================

   base      :      30000. kBytes
   nonl-proj :     226329. kBytes
   fftplans  :       2591. kBytes
   grid      :       5815. kBytes
   one-center:        139. kBytes
   wavefun   :     242542. kBytes
 
  
  
 General timing and accounting informations for this job:
 ========================================================
  
                  Total CPU time used (sec):     4597.051
                            User time (sec):     4548.326
                          System time (sec):       48.725
                         Elapsed time (sec):     4597.247
  
                   Maximum memory used (kb):      550352.
                   Average memory used (kb):           0.
  
                          Minor page faults:       197102
                          Major page faults:            0
                 Voluntary context switches:          236
